LAMMPS (23 Jun 2022 - Update 2)
Lattice spacing in x,y,z = 1.259921 1.259921 1.259921
Created orthogonal box = (0 0 0) to (25.198421 25.198421 25.198421)
  1 by 1 by 1 MPI processor grid
Created 8000 atoms
  using lattice units in orthogonal box = (0 0 0) to (25.198421 25.198421 25.198421)
  create_atoms CPU = 0.003 seconds
Generated 0 of 0 mixed pair_coeff terms from geometric mixing rule
Neighbor list info ...
  update every 20 steps, delay 0 steps, check no
  max neighbors/atom: 2000, page size: 100000
  master list distance cutoff = 2.8
  ghost atom cutoff = 2.8
  binsize = 1.4, bins = 18 18 18
  1 neighbor lists, perpetual/occasional/extra = 1 0 0
  (1) pair lj/cut, perpetual
      attributes: half, newton on
      pair build: half/bin/atomonly/newton
      stencil: half/bin/3d
      bin: standard
Setting up Verlet run ...
  Unit style    : lj
  Current step  : 0
  Time step     : 0.005
Per MPI rank memory allocation (min/avg/max) = 3.356 | 3.356 | 3.356 Mbytes
   Step          Temp          Press          PotEng         KinEng         TotEng         Volume    
         0   1.5           -1.5986234     -3.1233389      2.2497187     -0.87362016     16000        
      1000   1.4290813      0.59784407    -3.0747748      2.143354      -0.9314208      16000        
      2000   1.425002       0.62379349    -3.0737336      2.1372358     -0.9364978      16000        
      3000   1.4355217      0.56017944    -3.0940689      2.1530134     -0.94105544     16000        
      4000   1.4343016      0.54350347    -3.0962413      2.1511835     -0.94505778     16000        
      5000   1.4288421      0.5820134     -3.0934371      2.1429953     -0.95044181     16000        
      6000   1.4184629      0.56621729    -3.0812127      2.1274284     -0.95378436     16000        
      7000   1.435662       0.5233183     -3.1121427      2.1532238     -0.95891896     16000        
      8000   1.4209695      0.50939762    -3.0947572      2.1311879     -0.96356929     16000        
      9000   1.4175458      0.51700827    -3.0941011      2.1260529     -0.96804824     16000        
     10000   1.4135226      0.51469138    -3.0928617      2.1200188     -0.97284288     16000        
     11000   1.4056416      0.55741202    -3.0846326      2.1081988     -0.97643384     16000        
     12000   1.4065616      0.55923102    -3.0911143      2.1095787     -0.98153566     16000        
     13000   1.4056068      0.58742907    -3.0939396      2.1081467     -0.98579294     16000        
     14000   1.4142994      0.51173466    -3.1108585      2.1211839     -0.98967464     16000        
     15000   1.3996923      0.50265737    -3.0930426      2.0992759     -0.99376663     16000        
     16000   1.4074198      0.53084239    -3.1091649      2.1108658     -0.99829904     16000        
     17000   1.4002272      0.57054       -3.1031056      2.1000782     -1.0030274      16000        
     18000   1.3941232      0.57105859    -3.0975311      2.0909234     -1.0066077      16000        
     19000   1.3889569      0.55364713    -3.0940398      2.0831749     -1.0108649      16000        
     20000   1.386427       0.52554352    -3.0942493      2.0793805     -1.0148689      16000        
     21000   1.3875187      0.54760693    -3.1003182      2.0810178     -1.0193004      16000        
     22000   1.3842838      0.53924938    -3.099207       2.0761661     -1.0230409      16000        
     23000   1.381927       0.5099882     -3.0995031      2.0726314     -1.0268718      16000        
     24000   1.3749716      0.53194532    -3.0937974      2.0621996     -1.0315978      16000        
     25000   1.3717449      0.50290747    -3.0917247      2.0573601     -1.0343645      16000        
     26000   1.3584137      0.55389382    -3.075981       2.0373658     -1.0386152      16000        
     27000   1.3774107      0.51562815    -3.1095916      2.0658577     -1.0437339      16000        
     28000   1.3755028      0.48174758    -3.1100137      2.0629962     -1.0470174      16000        
     29000   1.3647192      0.51235171    -3.0981234      2.046823      -1.0513005      16000        
     30000   1.3777461      0.47123306    -3.1214129      2.0663608     -1.0550522      16000        
     31000   1.3606282      0.54495365    -3.0997466      2.0406871     -1.0590595      16000        
     32000   1.3639038      0.48810981    -3.1085099      2.0455999     -1.06291        16000        
     33000   1.3641436      0.51840437    -3.1129786      2.0459596     -1.067019       16000        
     34000   1.3577853      0.49508234    -3.1077417      2.0364234     -1.0713184      16000        
     35000   1.3507066      0.52074827    -3.1000322      2.0258067     -1.0742255      16000        
     36000   1.3496089      0.51874006    -3.1021974      2.0241603     -1.0780371      16000        
     37000   1.3559499      0.47497541    -3.1153295      2.0336706     -1.0816589      16000        
     38000   1.3478537      0.4904956     -3.1070935      2.0215279     -1.0855656      16000        
     39000   1.351639       0.49375665    -3.1166168      2.027205      -1.0894118      16000        
     40000   1.3476566      0.44389785    -3.1139543      2.0212323     -1.092722       16000        
     41000   1.3437463      0.46784611    -3.1114824      2.0153675     -1.0961149      16000        
     42000   1.3426163      0.47343625    -3.1136645      2.0136727     -1.0999918      16000        
     43000   1.3522611      0.44339578    -3.1326556      2.028138      -1.1045175      16000        
     44000   1.3412392      0.47298652    -3.1194447      2.0116073     -1.1078375      16000        
     45000   1.3422648      0.43052595    -3.1246074      2.0131455     -1.1114619      16000        
     46000   1.3342401      0.47625932    -3.1162491      2.00111       -1.1151391      16000        
     47000   1.3355105      0.465622      -3.1219076      2.0030153     -1.1188922      16000        
     48000   1.3450671      0.44278054    -3.140261       2.0173484     -1.1229126      16000        
     49000   1.3286623      0.46825791    -3.1180962      1.9927444     -1.1253518      16000        
     50000   1.3306641      0.46725918    -3.1252595      1.9957467     -1.1295128      16000        
     51000   1.3266019      0.37205919    -3.1218418      1.9896541     -1.1321876      16000        
     52000   1.3248437      0.43175206    -3.1228709      1.9870172     -1.1358537      16000        
     53000   1.3255818      0.46083179    -3.1280753      1.9881242     -1.1399511      16000        
     54000   1.3338794      0.41845929    -3.1437289      2.000569      -1.1431599      16000        
     55000   1.3111934      0.45990085    -3.1125079      1.9665443     -1.1459636      16000        
     56000   1.317575       0.42031208    -3.1260421      1.9761154     -1.1499267      16000        
     57000   1.3089834      0.45141307    -3.1162791      1.9632296     -1.1530495      16000        
     58000   1.3220272      0.39992194    -3.1391053      1.982793      -1.1563123      16000        
     59000   1.3131376      0.46045191    -3.1295919      1.9694602     -1.1601317      16000        
     60000   1.3168006      0.41181971    -3.1381352      1.974954      -1.1631812      16000        
     61000   1.3114729      0.404311      -3.1335166      1.9669635     -1.1665531      16000        
     62000   1.3065006      0.39072562    -3.1288434      1.9595059     -1.1693375      16000        
     63000   1.301799       0.45269609    -3.1256633      1.9524544     -1.1732089      16000        
     64000   1.2985065      0.4583288     -3.1242863      1.9475163     -1.17677        16000        
     65000   1.3040018      0.40904819    -3.1348167      1.9557581     -1.1790585      16000        
     66000   1.3023816      0.38240515    -3.1356561      1.9533282     -1.1823279      16000        
     67000   1.3039734      0.39751478    -3.1421119      1.9557155     -1.1863964      16000        
     68000   1.3010271      0.41738468    -3.1406612      1.9512968     -1.1893645      16000        
     69000   1.3007797      0.38838252    -3.1428325      1.9509256     -1.1919069      16000        
     70000   1.2850082      0.38140977    -3.1224061      1.9272714     -1.1951347      16000        
     71000   1.2927209      0.38120938    -3.1370476      1.938839      -1.1982086      16000        
     72000   1.2906286      0.38045363    -3.1379722      1.9357009     -1.2022712      16000        
     73000   1.2923371      0.40597739    -3.1439145      1.9382634     -1.2056512      16000        
     74000   1.2925191      0.39050789    -3.1473367      1.9385363     -1.2088003      16000        
     75000   1.2860438      0.41732522    -3.1405107      1.9288245     -1.2116862      16000        
     76000   1.2849049      0.41275476    -3.1415488      1.9271165     -1.2144324      16000        
     77000   1.2895473      0.35605066    -3.1513354      1.9340792     -1.2172562      16000        
     78000   1.2819533      0.37340567    -3.1434892      1.9226896     -1.2207997      16000        
     79000   1.2851023      0.40400411    -3.1513594      1.9274125     -1.2239469      16000        
     80000   1.2827355      0.39595611    -3.1506168      1.9238628     -1.226754       16000        
     81000   1.279282       0.41561375    -3.1492762      1.9186832     -1.230593       16000        
     82000   1.2827747      0.3711976     -3.1572314      1.9239215     -1.2333098      16000        
     83000   1.2860292      0.36846488    -3.1648943      1.9288027     -1.2360916      16000        
     84000   1.2728877      0.38962574    -3.1478416      1.9090929     -1.2387487      16000        
     85000   1.282085       0.35306544    -3.1653041      1.9228872     -1.242417       16000        
     86000   1.2661314      0.39347053    -3.1435287      1.8989597     -1.244569       16000        
     87000   1.2653852      0.38028921    -3.1456177      1.8978406     -1.2477771      16000        
     88000   1.2712824      0.35697401    -3.1580005      1.9066852     -1.2513153      16000        
     89000   1.2651982      0.35886617    -3.1511798      1.8975601     -1.2536196      16000        
     90000   1.2615231      0.40588146    -3.1494264      1.8920481     -1.2573783      16000        
     91000   1.2657501      0.33683818    -3.1569915      1.8983878     -1.2586037      16000        
     92000   1.2608967      0.38073828    -3.1536903      1.8911086     -1.2625817      16000        
     93000   1.2599012      0.36938618    -3.154906       1.8896156     -1.2652904      16000        
     94000   1.2566101      0.33801221    -3.1523211      1.8846795     -1.2676415      16000        
     95000   1.2635643      0.33696538    -3.165536       1.8951095     -1.2704265      16000        
     96000   1.2480741      0.36946475    -3.1448933      1.8718771     -1.2730162      16000        
     97000   1.2455361      0.37887241    -3.1440179      1.8680706     -1.2759473      16000        
     98000   1.2439467      0.35682562    -3.1439111      1.8656868     -1.2782243      16000        
     99000   1.2437989      0.35491833    -3.147124       1.8654652     -1.2816588      16000        
    100000   1.2491972      0.32549756    -3.1572719      1.8735615     -1.2837103      16000        
    101000   1.2512521      0.3349854     -3.1639878      1.8766436     -1.2873442      16000        
    102000   1.2474109      0.33269027    -3.1609589      1.8708824     -1.2900764      16000        
    103000   1.2506765      0.31971192    -3.1683826      1.8757803     -1.2926023      16000        
    104000   1.2483224      0.34173508    -3.1675425      1.8722495     -1.295293       16000        
    105000   1.2342542      0.38291183    -3.1495865      1.8511499     -1.2984367      16000        
    106000   1.2385892      0.31637628    -3.1586429      1.8576516     -1.3009913      16000        
    107000   1.2445595      0.29193669    -3.1703521      1.8666058     -1.3037462      16000        
    108000   1.238854       0.31611294    -3.1642111      1.8580487     -1.3061624      16000        
    109000   1.2432056      0.32222048    -3.1735838      1.8645753     -1.3090085      16000        
    110000   1.2375722      0.38009266    -3.1680759      1.8561263     -1.3119496      16000        
    111000   1.2445078      0.32940293    -3.180735       1.8665284     -1.3142066      16000        
    112000   1.2354563      0.25647399    -3.1694847      1.8529528     -1.3165319      16000        
    113000   1.2381158      0.32503515    -3.1756354      1.8569416     -1.3186938      16000        
    114000   1.2360015      0.28004268    -3.174937       1.8537705     -1.3211665      16000        
    115000   1.230752       0.33681034    -3.169633       1.8458973     -1.3237357      16000        
    116000   1.233997       0.31613412    -3.1775237      1.8507641     -1.3267595      16000        
    117000   1.2216322      0.30922008    -3.1611855      1.8322193     -1.3289662      16000        
    118000   1.2364248      0.27958206    -3.1868868      1.8544054     -1.3324815      16000        
    119000   1.227505       0.29116661    -3.1751761      1.8410274     -1.3341486      16000        
    120000   1.2269845      0.33341028    -3.1775432      1.8402467     -1.3372965      16000        
    121000   1.226541       0.32024638    -3.179642       1.8395815     -1.3400605      16000        
    122000   1.213146       0.28953225    -3.1610819      1.8194915     -1.3415904      16000        
    123000   1.2117057      0.32911013    -3.1615774      1.8173314     -1.344246       16000        
    124000   1.2140576      0.29486975    -3.1674605      1.8208588     -1.3466017      16000        
    125000   1.2207594      0.31037133    -3.1810847      1.8309103     -1.3501744      16000        
    126000   1.2146533      0.28315469    -3.1734443      1.8217522     -1.3516921      16000        
    127000   1.2149328      0.28388716    -3.1766315      1.8221714     -1.3544601      16000        
    128000   1.2124424      0.33203763    -3.1760916      1.8184363     -1.3576553      16000        
    129000   1.213917       0.31199631    -3.1804223      1.8206479     -1.3597744      16000        
    130000   1.208223       0.28322934    -3.1737966      1.8121079     -1.3616886      16000        
    131000   1.2061786      0.32596982    -3.1734215      1.8090418     -1.3643797      16000        
    132000   1.2206098      0.32187305    -3.1982852      1.8306859     -1.3675993      16000        
    133000   1.2084292      0.28078536    -3.1816996      1.8124173     -1.3692823      16000        
    134000   1.2014275      0.31516602    -3.1732875      1.801916      -1.3713715      16000        
    135000   1.2201854      0.23882128    -3.2040571      1.8300492     -1.3740078      16000        
    136000   1.2052569      0.27692266    -3.1839796      1.8076593     -1.3763203      16000        
    137000   1.2060025      0.26751036    -3.1876308      1.8087776     -1.3788532      16000        
    138000   1.1997234      0.30235085    -3.1803806      1.7993602     -1.3810205      16000        
    139000   1.2056232      0.31032094    -3.1917276      1.8082088     -1.3835187      16000        
    140000   1.2087437      0.27940287    -3.1990482      1.8128889     -1.3861593      16000        
    141000   1.1983227      0.27544211    -3.1855207      1.7972593     -1.3882613      16000        
    142000   1.1992612      0.29298022    -3.1885527      1.7986669     -1.3898858      16000        
    143000   1.1929224      0.3106271     -3.1817058      1.78916       -1.3925458      16000        
    144000   1.1990659      0.25287368    -3.1939269      1.7983741     -1.3955528      16000        
    145000   1.1998929      0.27529762    -3.1979469      1.7996144     -1.3983325      16000        
    146000   1.1969894      0.25568986    -3.1951671      1.7952596     -1.3999075      16000        
    147000   1.2012252      0.22683448    -3.2034035      1.8016125     -1.4017909      16000        
    148000   1.1932955      0.23793551    -3.1935759      1.7897195     -1.4038564      16000        
    149000   1.1931811      0.262221      -3.1961777      1.7895479     -1.4066298      16000        
    150000   1.1820577      0.24968293    -3.1810355      1.7728649     -1.4081706      16000        
    151000   1.1961218      0.24327809    -3.2053283      1.7939585     -1.4113698      16000        
    152000   1.1813282      0.32424365    -3.1851371      1.7717708     -1.4133662      16000        
    153000   1.1829355      0.25042527    -3.1891918      1.7741814     -1.4150104      16000        
    154000   1.1912169      0.24070373    -3.2043879      1.786602      -1.4177859      16000        
    155000   1.1716406      0.2926453     -3.1772863      1.7572413     -1.420045       16000        
    156000   1.1822876      0.28361148    -3.1955098      1.7732097     -1.4223001      16000        
    157000   1.1848156      0.24857031    -3.2015415      1.7770013     -1.4245402      16000        
    158000   1.1893179      0.25095288    -3.2101541      1.7837539     -1.4264002      16000        
    159000   1.1906532      0.20416806    -3.2138858      1.7857566     -1.4281292      16000        
    160000   1.1881657      0.21310238    -3.2132212      1.7820258     -1.4311955      16000        
    161000   1.1838269      0.22692773    -3.2089395      1.7755184     -1.4334211      16000        
    162000   1.1752985      0.25283389    -3.1986465      1.7627273     -1.4359192      16000        
    163000   1.1756257      0.24232119    -3.2003582      1.7632181     -1.4371401      16000        
    164000   1.1701991      0.2506889     -3.1942172      1.7550793     -1.4391379      16000        
    165000   1.1796313      0.22690903    -3.2108532      1.7692258     -1.4416275      16000        
    166000   1.1736917      0.25818532    -3.2041673      1.7603174     -1.4438498      16000        
    167000   1.1781295      0.18812648    -3.2124596      1.7669734     -1.4454862      16000        
    168000   1.1630153      0.24234545    -3.1915876      1.7443049     -1.4472827      16000        
    169000   1.1655506      0.22592036    -3.1980151      1.7481074     -1.4499077      16000        
    170000   1.1710818      0.25014621    -3.209667       1.7564032     -1.4532638      16000        
    171000   1.169762       0.2066055     -3.2093965      1.7544237     -1.4549728      16000        
    172000   1.1703502      0.22142137    -3.2114402      1.7553058     -1.4561344      16000        
    173000   1.1670161      0.20787598    -3.2082718      1.7503054     -1.4579664      16000        
    174000   1.1582717      0.23245141    -3.1968577      1.7371904     -1.4596673      16000        
    175000   1.1604143      0.21402813    -3.2022771      1.7404038     -1.4618733      16000        
    176000   1.160484       0.20800702    -3.2048632      1.7405085     -1.4643548      16000        
    177000   1.1666959      0.24772293    -3.2174544      1.7498251     -1.4676293      16000        
    178000   1.1762447      0.23049849    -3.2336474      1.7641465     -1.4695009      16000        
    179000   1.1653067      0.21690418    -3.2188093      1.7477416     -1.4710678      16000        
    180000   1.1590395      0.22348857    -3.2106467      1.738342      -1.4723047      16000        
    181000   1.1563066      0.214287      -3.2085336      1.734243      -1.4742906      16000        
    182000   1.1645822      0.17719743    -3.2236321      1.7466549     -1.4769771      16000        
    183000   1.1561317      0.22926324    -3.2128603      1.7339807     -1.4788796      16000        
    184000   1.1634003      0.18264616    -3.225394       1.7448823     -1.4805118      16000        
    185000   1.1535099      0.20001216    -3.2132042      1.7300486     -1.4831556      16000        
    186000   1.1536854      0.17091634    -3.2146786      1.7303117     -1.4843668      16000        
    187000   1.1536009      0.25369593    -3.2173077      1.730185      -1.4871227      16000        
    188000   1.1480188      0.21587068    -3.2093359      1.721813      -1.4875229      16000        
    189000   1.1465824      0.2447906     -3.2108927      1.7196586     -1.4912341      16000        
    190000   1.1603503      0.2118929     -3.2336655      1.7403079     -1.4933576      16000        
    191000   1.1475651      0.2183424     -3.2156091      1.7211325     -1.4944766      16000        
    192000   1.1495871      0.21768153    -3.2207314      1.7241651     -1.4965664      16000        
    193000   1.1473378      0.20972532    -3.2197883      1.7207915     -1.4989968      16000        
    194000   1.1337567      0.22555489    -3.2002515      1.7004224     -1.499829       16000        
    195000   1.1385408      0.25043478    -3.2098869      1.7075977     -1.5022892      16000        
    196000   1.1494025      0.17743213    -3.2288358      1.7238883     -1.5049475      16000        
    197000   1.1438696      0.17619227    -3.2220534      1.7155899     -1.5064635      16000        
    198000   1.1405292      0.18797903    -3.2184351      1.71058       -1.5078551      16000        
    199000   1.1465459      0.17245037    -3.2297654      1.7196038     -1.5101616      16000        
    200000   1.1429899      0.20689933    -3.2263073      1.7142706     -1.5120367      16000        
    201000   1.1460076      0.2015242     -3.2330296      1.7187965     -1.5142331      16000        
    202000   1.1398761      0.19924866    -3.2251985      1.7096004     -1.5155981      16000        
    203000   1.1437773      0.17352143    -3.2330833      1.7154515     -1.5176317      16000        
    204000   1.1389773      0.20750171    -3.2274006      1.7082524     -1.5191482      16000        
    205000   1.1462858      0.1552191     -3.2414944      1.7192138     -1.5222806      16000        
    206000   1.1337461      0.24105768    -3.2246374      1.7004066     -1.5242308      16000        
    207000   1.133791       0.22536951    -3.2249936      1.7004739     -1.5245197      16000        
    208000   1.1320683      0.14771914    -3.2251339      1.6978901     -1.5272437      16000        
    209000   1.1314228      0.1778348     -3.2255627      1.6969221     -1.5286407      16000        
    210000   1.1345296      0.2088529     -3.2323445      1.7015817     -1.5307628      16000        
    211000   1.1447952      0.14927875    -3.2500764      1.7169781     -1.5330982      16000        
    212000   1.1335571      0.19569199    -3.2339948      1.7001231     -1.5338718      16000        
    213000   1.1281921      0.21584267    -3.2277037      1.6920767     -1.535627       16000        
    214000   1.1303475      0.13720262    -3.2331789      1.6953093     -1.5378695      16000        
    215000   1.1360694      0.15998128    -3.2437226      1.7038911     -1.5398315      16000        
    216000   1.1370082      0.11585258    -3.2470823      1.7052991     -1.5417832      16000        
    217000   1.1286659      0.13999955    -3.2356494      1.6927872     -1.5428622      16000        
    218000   1.1172425      0.17471505    -3.220188       1.6756542     -1.5445338      16000        
    219000   1.1124747      0.20211608    -3.2153284      1.6685035     -1.5468249      16000        
    220000   1.127699       0.15337994    -3.2391747      1.691337      -1.5478377      16000        
    221000   1.1202628      0.19062971    -3.2295625      1.6801842     -1.5493783      16000        
    222000   1.115505       0.17978889    -3.2243143      1.6730484     -1.551266       16000        
    223000   1.1143731      0.1723099     -3.2244085      1.6713508     -1.5530577      16000        
    224000   1.1176613      0.12941901    -3.2307718      1.6762824     -1.5544894      16000        
    225000   1.1157095      0.16799481    -3.230257       1.673355      -1.556902       16000        
    226000   1.1226781      0.18963653    -3.2425188      1.6838066     -1.5587122      16000        
    227000   1.1084389      0.18100576    -3.2222045      1.6624506     -1.5597539      16000        
    228000   1.1176785      0.15054981    -3.2384934      1.6763083     -1.5621852      16000        
    229000   1.1220656      0.12899983    -3.246499       1.682888      -1.563611       16000        
    230000   1.1172061      0.17853669    -3.2411957      1.6755997     -1.565596       16000        
    231000   1.1121679      0.19158569    -3.2350964      1.6680434     -1.567053       16000        
    232000   1.1139816      0.15654865    -3.2395959      1.6707636     -1.5688323      16000        
    233000   1.1192822      0.22026189    -3.2496916      1.6787134     -1.5709782      16000        
    234000   1.1140653      0.11225996    -3.242865       1.6708891     -1.5719759      16000        
    235000   1.1145807      0.17875913    -3.245981       1.6716621     -1.5743188      16000        
    236000   1.111639       0.15722786    -3.2431041      1.66725       -1.5758541      16000        
    237000   1.1091121      0.13226397    -3.2403869      1.6634602     -1.5769267      16000        
    238000   1.1015406      0.14563699    -3.2305835      1.6521044     -1.5784791      16000        
    239000   1.1081743      0.1489938     -3.2432356      1.6620537     -1.5811819      16000        
    240000   1.110604       0.16254722    -3.2481615      1.6656978     -1.5824637      16000        
    241000   1.1093392      0.18601672    -3.2483551      1.6638007     -1.5845543      16000        
    242000   1.1067851      0.15971146    -3.2468899      1.6599701     -1.5869198      16000        
    243000   1.1120634      0.16597105    -3.2558554      1.6678866     -1.5879688      16000        
    244000   1.1122657      0.19918925    -3.2575867      1.66819       -1.5893967      16000        
    245000   1.1024518      0.21136593    -3.2454668      1.653471      -1.5919957      16000        
    246000   1.1142358      0.13378464    -3.2639319      1.6711448     -1.5927871      16000        
    247000   1.1017669      0.13522786    -3.2465224      1.6524438     -1.5940786      16000        
    248000   1.0968394      0.14616848    -3.2402328      1.6450535     -1.5951793      16000        
    249000   1.0982754      0.13634465    -3.2442068      1.6472072     -1.5969996      16000        
    250000   1.1015161      0.11042108    -3.2507333      1.6520677     -1.5986656      16000        
    251000   1.0974264      0.12675064    -3.246411       1.6459338     -1.6004772      16000        
    252000   1.0970806      0.1854368     -3.2479447      1.6454151     -1.6025296      16000        
    253000   1.1029414      0.1453355     -3.2587689      1.6542053     -1.6045637      16000        
    254000   1.0939522      0.14739374    -3.2460079      1.6407232     -1.6052847      16000        
    255000   1.1031494      0.15063076    -3.2625606      1.6545173     -1.6080433      16000        
    256000   1.1037249      0.13266519    -3.2643558      1.6553805     -1.6089753      16000        
    257000   1.1045558      0.13588163    -3.2674097      1.6566267     -1.610783       16000        
    258000   1.0886424      0.16406096    -3.2445124      1.6327595     -1.6117529      16000        
    259000   1.0935678      0.13096832    -3.2537881      1.6401467     -1.6136414      16000        
    260000   1.1023784      0.054245095   -3.2677556      1.6533609     -1.6143948      16000        
    261000   1.1014442      0.11698117    -3.2689887      1.6519597     -1.617029       16000        
    262000   1.0942667      0.16285972    -3.2593118      1.6411948     -1.618117       16000        
    263000   1.0920448      0.11531937    -3.257102       1.6378625     -1.6192395      16000        
    264000   1.0872004      0.14310855    -3.2518101      1.6305968     -1.6212134      16000        
    265000   1.0925814      0.16684793    -3.261538       1.6386672     -1.6228708      16000        
    266000   1.0855731      0.1436668     -3.2525795      1.6281561     -1.6244234      16000        
    267000   1.0946124      0.21860686    -3.2693314      1.6417133     -1.627618       16000        
    268000   1.0851302      0.14149925    -3.2552721      1.6274918     -1.6277802      16000        
    269000   1.0910516      0.14742069    -3.2653093      1.6363728     -1.6289365      16000        
    270000   1.0848659      0.14932756    -3.2583775      1.6270954     -1.6312821      16000        
    271000   1.1010943      0.13363781    -3.2847879      1.651435      -1.6333529      16000        
    272000   1.0836307      0.14770476    -3.2597058      1.6252428     -1.634463       16000        
    273000   1.086802       0.12019723    -3.265591       1.6299993     -1.6355917      16000        
    274000   1.0858776      0.13746673    -3.266757       1.6286128     -1.6381442      16000        
    275000   1.0859249      0.13855862    -3.2672078      1.6286837     -1.6385242      16000        
    276000   1.0864852      0.12767413    -3.2699856      1.6295241     -1.6404615      16000        
    277000   1.0893605      0.074242162   -3.2753644      1.6338365     -1.6415279      16000        
    278000   1.0682037      0.12809747    -3.2438729      1.6021053     -1.6417676      16000        
    279000   1.0726281      0.14099399    -3.252264       1.608741      -1.643523       16000        
    280000   1.08081        0.11010001    -3.2664091      1.6210124     -1.6453967      16000        
    281000   1.0903201      0.083491013   -3.2829301      1.6352758     -1.6476543      16000        
    282000   1.0833187      0.137154      -3.2737851      1.624775      -1.6490102      16000        
    283000   1.086818       0.15084273    -3.2808973      1.6300232     -1.6508741      16000        
    284000   1.0806453      0.12976792    -3.2731801      1.6207653     -1.6524148      16000        
    285000   1.0761622      0.11639051    -3.2668924      1.6140415     -1.6528509      16000        
    286000   1.0764781      0.17485948    -3.2690881      1.6145153     -1.6545728      16000        
    287000   1.0640726      0.15618817    -3.251767       1.5959094     -1.6558576      16000        
    288000   1.0790062      0.10211394    -3.2759156      1.618307      -1.6576085      16000        
    289000   1.0755211      0.10289216    -3.2718449      1.61308       -1.6587649      16000        
    290000   1.0636237      0.14134031    -3.2554425      1.5952362     -1.6602063      16000        
    291000   1.0771203      0.12875967    -3.2779242      1.6154785     -1.6624457      16000        
    292000   1.0750336      0.14259558    -3.2762328      1.6123488     -1.6638839      16000        
    293000   1.0753375      0.088760836   -3.2770005      1.6128046     -1.6641958      16000        
    294000   1.07134        0.093458223   -3.2732592      1.6068092     -1.6664501      16000        
    295000   1.0677609      0.13495528    -3.2689149      1.6014412     -1.6674738      16000        
    296000   1.07301        0.12602042    -3.2785931      1.6093138     -1.6692793      16000        
    297000   1.0775129      0.099873258   -3.2868034      1.6160673     -1.6707361      16000        
    298000   1.0649358      0.10823078    -3.2686918      1.5972041     -1.6714877      16000        
    299000   1.071703       0.10009222    -3.2811992      1.6073536     -1.6738456      16000        
    300000   1.0695333      0.087250307   -3.2789804      1.6040994     -1.6748811      16000        
    301000   1.0767485      0.10309805    -3.2926339      1.6149208     -1.6777131      16000        
    302000   1.068553       0.1571317     -3.2823072      1.6026291     -1.6796781      16000        
    303000   1.0629987      0.067005676   -3.2730062      1.5942987     -1.6787075      16000        
    304000   1.0692323      0.080480607   -3.2843184      1.6036479     -1.6806705      16000        
    305000   1.0741789      0.0820222     -3.2938256      1.611067      -1.6827586      16000        
    306000   1.0697073      0.068799374   -3.2878018      1.6043604     -1.6834414      16000        
    307000   1.0598834      0.092475162   -3.2735159      1.5896264     -1.6838894      16000        
    308000   1.0690055      0.1573137     -3.2912488      1.6033079     -1.6879409      16000        
    309000   1.0668453      0.082539114   -3.2882373      1.6000679     -1.6881694      16000        
    310000   1.0641372      0.090542584   -3.2858413      1.5960063     -1.6898349      16000        
    311000   1.0615699      0.090730437   -3.2827273      1.5921558     -1.6905714      16000        
    312000   1.0525796      0.070835371   -3.2695847      1.578672      -1.6909127      16000        
    313000   1.0620346      0.034517766   -3.2852076      1.5928527     -1.6923549      16000        
    314000   1.0597954      0.094039073   -3.2835097      1.5894943     -1.6940153      16000        
    315000   1.0529448      0.13885273    -3.2750264      1.5792197     -1.6958067      16000        
    316000   1.0557813      0.06794463    -3.2801495      1.583474      -1.6966755      16000        
    317000   1.0537065      0.092748995   -3.2791141      1.5803622     -1.6987519      16000        
    318000   1.0635663      0.10328847    -3.2954458      1.5951501     -1.7002957      16000        
    319000   1.0568275      0.079101187   -3.2855511      1.5850431     -1.700508       16000        
    320000   1.0535393      0.11401452    -3.282835       1.5801114     -1.7027236      16000        
    321000   1.0599108      0.081472284   -3.2936411      1.5896675     -1.7039736      16000        
    322000   1.0555977      0.10691296    -3.2886202      1.5831986     -1.7054216      16000        
    323000   1.0469299      0.079398121   -3.2759152      1.5701985     -1.7057166      16000        
    324000   1.0474941      0.084291462   -3.2784502      1.5710447     -1.7074055      16000        
    325000   1.0544369      0.096140571   -3.2914822      1.5814576     -1.7100246      16000        
    326000   1.0558306      0.07523634    -3.294062       1.583548      -1.710514       16000        
    327000   1.0525268      0.10021925    -3.2907769      1.5785928     -1.7121841      16000        
    328000   1.0442413      0.11676285    -3.2788088      1.5661662     -1.7126426      16000        
    329000   1.0452345      0.059531943   -3.2816285      1.5676558     -1.7139727      16000        
    330000   1.0510005      0.062687015   -3.2913099      1.5763037     -1.7150061      16000        
    331000   1.0388185      0.092774862   -3.2748917      1.558033      -1.7168587      16000        
    332000   1.0441573      0.06866684    -3.2838251      1.5660402     -1.7177849      16000        
    333000   1.0461866      0.078850286   -3.2887894      1.5690837     -1.7197057      16000        
    334000   1.0487598      0.083687878   -3.2947339      1.572943      -1.7217908      16000        
    335000   1.0546948      0.070433068   -3.3046627      1.5818444     -1.7228182      16000        
    336000   1.0547303      0.070069534   -3.30648        1.5818976     -1.7245823      16000        
    337000   1.0539456      0.022192624   -3.3058389      1.5807208     -1.725118       16000        
    338000   1.0533586      0.096754498   -3.3068869      1.5798404     -1.7270465      16000        
    339000   1.0491873      0.093685063   -3.3016648      1.5735842     -1.7280806      16000        
    340000   1.0433469      0.025897619   -3.2929458      1.5648247     -1.7281211      16000        
    341000   1.0519171      0.098875026   -3.308444       1.5776784     -1.7307657      16000        
    342000   1.0475639      0.067274443   -3.3026788      1.5711495     -1.7315293      16000        
    343000   1.0425784      0.092022867   -3.2965907      1.5636721     -1.7329186      16000        
    344000   1.0388408      0.079645173   -3.2916602      1.5580664     -1.7335939      16000        
    345000   1.0508943      0.077861898   -3.312644       1.5761444     -1.7364996      16000        
    346000   1.0529836      0.094982865   -3.3165017      1.5792779     -1.7372238      16000        
    347000   1.0441479      0.041933046   -3.3038937      1.5660261     -1.7378675      16000        
    348000   1.0436117      0.09530921    -3.3045763      1.5652219     -1.7393544      16000        
    349000   1.0426405      0.032454867   -3.3040823      1.5637653     -1.740317       16000        
    350000   1.0465985      0.056110214   -3.3122787      1.5697015     -1.7425772      16000        
    351000   1.0319116      0.097945647   -3.2903476      1.5476739     -1.7426737      16000        
    352000   1.0512362      0.070131225   -3.3206633      1.5766572     -1.7440061      16000        
    353000   1.0435259      0.07931251    -3.3109439      1.5650932     -1.7458507      16000        
    354000   1.0391897      0.062891221   -3.3039215      1.5585897     -1.7453318      16000        
    355000   1.0353222      0.067671617   -3.3005822      1.5527892     -1.7477931      16000        
    356000   1.0400646      0.094545908   -3.3103068      1.5599019     -1.7504049      16000        
    357000   1.0458547      0.087600704   -3.3201689      1.568586      -1.7515829      16000        
    358000   1.0420832      0.10897288    -3.3158773      1.5629294     -1.7529478      16000        
    359000   1.0449164      0.064407214   -3.3211664      1.5671787     -1.7539877      16000        
    360000   1.0521219      0.07123691    -3.333875       1.5779856     -1.7558894      16000        
    361000   1.0359719      0.089516222   -3.3104454      1.5537637     -1.7566817      16000        
    362000   1.0398588      0.082565312   -3.3174587      1.5595932     -1.7578655      16000        
    363000   1.0207689      0.072862581   -3.2882082      1.530962      -1.7572463      16000        
    364000   1.0274038      0.084413342   -3.3000257      1.5409131     -1.7591125      16000        
    365000   1.034721       0.033239395   -3.3122356      1.5518875     -1.7603481      16000        
    366000   1.0342131      0.075110331   -3.3137262      1.5511258     -1.7626004      16000        
    367000   1.038245      -0.0033298912  -3.3194929      1.5571729     -1.7623201      16000        
    368000   1.0358013      0.075829245   -3.3173864      1.5535077     -1.7638786      16000        
    369000   1.0280774      0.028446029   -3.3062885      1.5419234     -1.7643651      16000        
    370000   1.0238529      0.033769282   -3.301387       1.5355874     -1.7657997      16000        
    371000   1.0261625      0.061086998   -3.3063708      1.5390513     -1.7673195      16000        
    372000   1.0212977      0.048872183   -3.2994466      1.531755      -1.7676916      16000        
    373000   1.0297878      0.022363862   -3.3142695      1.5444886     -1.7697809      16000        
    374000   1.0357584      0.066948786   -3.325034       1.5534434     -1.7715906      16000        
    375000   1.0429485      0.034784829   -3.3368936      1.5642272     -1.7726665      16000        
    376000   1.0284195      0.065480338   -3.3168181      1.5424364     -1.7743817      16000        
    377000   1.022031       0.010791047   -3.3068873      1.5328548     -1.7740325      16000        
    378000   1.0281104      0.051869608   -3.318745       1.5419729     -1.7767721      16000        
    379000   1.0360066      0.049663206   -3.3332303      1.5538156     -1.7794147      16000        
    380000   1.0326213      0.084699724   -3.3288338      1.5487384     -1.7800954      16000        
    381000   1.0293322      0.057345324   -3.3236155      1.5438052     -1.7798102      16000        
    382000   1.0292717      0.066095365   -3.3259526      1.5437146     -1.782238       16000        
    383000   1.0292689      0.034716683   -3.3270158      1.5437103     -1.7833055      16000        
    384000   1.0284637      0.047183125   -3.3260692      1.5425027     -1.7835664      16000        
    385000   1.0165218      0.037818174   -3.3086365      1.524592      -1.7840445      16000        
    386000   1.0206317      0.065948704   -3.3159346      1.5307561     -1.7851785      16000        
    387000   1.0225328      0.037644841   -3.321015       1.5336075     -1.7874074      16000        
    388000   1.027045       0.029890257   -3.3288557      1.540375      -1.7884808      16000        
    389000   1.0193823      0.041758536   -3.3179855      1.5288824     -1.7891031      16000        
    390000   1.031395       0.060942558   -3.3379502      1.5468991     -1.7910511      16000        
    391000   1.0211337      0.034504131   -3.3229698      1.5315092     -1.7914606      16000        
    392000   1.0286752      0.0069236242  -3.335704       1.5428199     -1.7928841      16000        
    393000   1.0362359      0.028212434   -3.3499197      1.5541596     -1.7957601      16000        
    394000   1.0272001      0.067612361   -3.3369529      1.5406076     -1.7963453      16000        
    395000   1.0247146      0.046936782   -3.3331295      1.5368798     -1.7962498      16000        
    396000   1.0203764     -0.0064258371  -3.3278625      1.5303733     -1.7974891      16000        
    397000   1.0142662      0.062311717   -3.3197386      1.5212092     -1.7985295      16000        
    398000   1.0222178      0.036063013   -3.3336029      1.533135      -1.8004679      16000        
    399000   1.023794       0.057550537   -3.3367363      1.535499      -1.8012373      16000        
    400000   1.0232913      0.055573691   -3.3369247      1.534745      -1.8021797      16000        
    401000   1.0174237      0.048896583   -3.3294243      1.5259447     -1.8034796      16000        
    402000   1.0260862      0.021099445   -3.344276       1.5389369     -1.8053391      16000        
    403000   1.0159403      0.043920105   -3.3296348      1.5237199     -1.8059149      16000        
    404000   1.0163137      0.045344523   -3.3309995      1.52428       -1.8067195      16000        
    405000   1.0216352      0.053916686   -3.3403561      1.5322613     -1.8080948      16000        
    406000   1.0232778      0.044845923   -3.3447659      1.5347248     -1.8100411      16000        
    407000   1.0294389      0.040534437   -3.3554081      1.5439653     -1.8114428      16000        
    408000   1.0263272      0.01430849    -3.3515837      1.5392983     -1.8122854      16000        
    409000   1.0350164      0.017099225   -3.3668201      1.5523305     -1.8144896      16000        
    410000   1.0184812      0.038278389   -3.3420918      1.5275309     -1.8145609      16000        
    411000   1.0228254      0.022381583   -3.3498456      1.5340463     -1.8157992      16000        
    412000   1.0072985      0.0675846     -3.3265225      1.5107588     -1.8157636      16000        
    413000   1.0178598      0.048137425   -3.3443159      1.5265989     -1.817717       16000        
    414000   1.0164792      0.091894088   -3.3435385      1.5245282     -1.8190103      16000        
    415000   1.0150888      0.044152004   -3.3418532      1.5224429     -1.8194103      16000        
    416000   1.0104423      0.052198869   -3.3360609      1.515474      -1.8205869      16000        
    417000   1.0159975      0.10566451    -3.3470359      1.5238057     -1.8232302      16000        
    418000   1.017121       0.058321719   -3.3493074      1.5254908     -1.8238166      16000        
    419000   1.0088996      0.066229568   -3.3379305      1.5131603     -1.8247702      16000        
    420000   1.0109856      0.065780898   -3.3416218      1.5162888     -1.825333       16000        
    421000   1.0201005      0.017729014   -3.3562782      1.5299594     -1.8263188      16000        
    422000   1.0199413      0.082006718   -3.3590385      1.5297207     -1.8293177      16000        
    423000   1.0115055      0.080511657   -3.3474523      1.5170686     -1.8303838      16000        
    424000   1.0198328      0.051318422   -3.3610802      1.529558      -1.8315222      16000        
    425000   1.016943       0.036518492   -3.3570031      1.5252239     -1.8317792      16000        
    426000   1.0265708      0.070752336   -3.3747583      1.5396638     -1.8350946      16000        
    427000   1.020358       0.064332841   -3.3657085      1.5303457     -1.8353628      16000        
    428000   1.0201939      0.098908294   -3.3670228      1.5300995     -1.8369233      16000        
    429000   1.0196011      0.051789877   -3.3668641      1.5292105     -1.8376536      16000        
    430000   1.0123723      0.027351151   -3.3556583      1.5183686     -1.8372897      16000        
    431000   1.0125936      0.11122996    -3.3585589      1.5187005     -1.8398584      16000        
    432000   1.0189108      0.022732333   -3.3680339      1.5281751     -1.8398588      16000        
    433000   1.0137985      0.038082358   -3.3617788      1.5205076     -1.8412712      16000        
    434000   1.0076566      0.023390446   -3.3529398      1.5112959     -1.8416439      16000        
    435000   1.0199147      0.063180929   -3.3737387      1.5296808     -1.8440579      16000        
    436000   0.99835213     0.025781899   -3.3408289      1.497341      -1.8434879      16000        
    437000   1.0002246     -0.0044473445  -3.3443123      1.5001493     -1.844163       16000        
    438000   1.0065908      0.020311476   -3.3554417      1.5096975     -1.8457442      16000        
    439000   0.99880832     0.043013139   -3.344809       1.4980252     -1.8467838      16000        
    440000   1.0018669      0.015114166   -3.3502507      1.5026125     -1.8476382      16000        
    441000   1.0071152      0.041579205   -3.3594979      1.510484      -1.8490139      16000        
    442000   1.0081507      0.02753646    -3.3628867      1.512037      -1.8508497      16000        
    443000   1.0102984      0.033391845   -3.3674378      1.5152582     -1.8521796      16000        
    444000   1.0052288      0.055000312   -3.3614518      1.5076547     -1.8537971      16000        
    445000   1.0198872      0.075877839   -3.3858054      1.5296396     -1.8561658      16000        
    446000   1.0046856      0.018804181   -3.3622909      1.5068399     -1.8554509      16000        
    447000   0.99995861    -0.0057943243  -3.3549751      1.4997504     -1.8552247      16000        
    448000   1.0015831      0.0038016747  -3.358949       1.5021869     -1.8567622      16000        
    449000   0.9978613      0.026983591   -3.3540634      1.4966049     -1.8574585      16000        
    450000   1.0002249      0.032467375   -3.358745       1.5001498     -1.8585952      16000        
    451000   0.99522306     0.084162171   -3.3532502      1.492648      -1.8606022      16000        
    452000   1.0029685      0.028322562   -3.3650394      1.5042647     -1.8607747      16000        
    453000   0.99443372     0.059600422   -3.3540874      1.4914641     -1.8626232      16000        
    454000   1.0072067      0.024313906   -3.374807       1.5106212     -1.8641858      16000        
    455000   1.0084206      0.013642848   -3.3776423      1.5124418     -1.8652005      16000        
    456000   1.0042148      0.0026929915  -3.3723149      1.5061339     -1.8661809      16000        
    457000   0.9926035      0.050781574   -3.355205       1.4887191     -1.8664859      16000        
    458000   1.0023049      0.026475008   -3.3712755      1.5032694     -1.8680061      16000        
    459000   0.98466809     0.0089679977  -3.3447978      1.4768175     -1.8679803      16000        
    460000   0.98904995     0.056192981   -3.3521213      1.4833895     -1.8687318      16000        
    461000   1.0120891      0.032589263   -3.3899963      1.5179439     -1.8720525      16000        
    462000   0.99453952    -0.017972983   -3.3625124      1.4916228     -1.8708896      16000        
    463000   1.0001133      0.02514352    -3.3727333      1.4999824     -1.8727508      16000        
    464000   0.98826387     0.02642673    -3.3556444      1.4822105     -1.8734339      16000        
    465000   0.98735294     0.039967729   -3.3548312      1.4808443     -1.8739869      16000        
    466000   0.99961187     0.050969216   -3.3757218      1.4992304     -1.8764915      16000        
    467000   0.9948283      0.047913489   -3.3684334      1.4920559     -1.8763775      16000        
    468000   0.98170805     0.039689696   -3.3495995      1.472378      -1.8772215      16000        
    469000   1.0052691      0.050718651   -3.3877559      1.5077152     -1.8800407      16000        
    470000   0.999458       0.018436863   -3.3805488      1.4989996     -1.8815492      16000        
    471000   1.0079701     -0.007502317   -3.3941715      1.5117662     -1.8824053      16000        
    472000   0.99456082     0.075945362   -3.3748779      1.4916548     -1.8832231      16000        
    473000   1.003991       0.016742974   -3.3903036      1.5057983     -1.8845053      16000        
    474000   0.99138447     0.022453508   -3.3710827      1.4868908     -1.8841919      16000        
    475000   0.99571776     0.023196379   -3.3790659      1.4933899     -1.885676       16000        
    476000   0.98997508     0.011390786   -3.3708519      1.484777      -1.8860749      16000        
    477000   0.9930641      0.052994334   -3.3770485      1.48941       -1.8876386      16000        
    478000   0.99266088     0.043221824   -3.3774031      1.4888052     -1.8885979      16000        
    479000   0.9831573      0.0075278787  -3.3627464      1.4745516     -1.8881947      16000        
    480000   0.99280818     0.036825385   -3.3801407      1.4890261     -1.8911146      16000        
    481000   0.99480834     0.053448257   -3.3836572      1.492026      -1.8916313      16000        
    482000   0.9829683      0.0082396433  -3.3661495      1.4742681     -1.8918814      16000        
    483000   0.97774645     0.012958609   -3.35917        1.4664363     -1.8927337      16000        
    484000   0.99589885     0.052323115   -3.3893055      1.4936615     -1.895644       16000        
    485000   0.99200896     0.032349696   -3.3835558      1.4878274     -1.8957283      16000        
    486000   0.98962255     0.011732844   -3.3800907      1.4842483     -1.8958424      16000        
    487000   0.99699272     0.0072825976  -3.3929182      1.4953021     -1.897616       16000        
    488000   0.97726327     0.018260676   -3.3630386      1.4657117     -1.897327       16000        
    489000   0.98219076     0.032425955   -3.3717932      1.473102      -1.8986912      16000        
    490000   0.984874      -0.027056196   -3.3760689      1.4771263     -1.8989426      16000        
    491000   0.98780198     0.026749701   -3.3835743      1.4815178     -1.9020566      16000        
    492000   0.99149941     0.042985829   -3.3894598      1.4870632     -1.9023966      16000        
    493000   0.98629136     0.0023148474  -3.3819408      1.4792521     -1.9026887      16000        
    494000   0.98416927    -0.027024797   -3.3790007      1.4760694     -1.9029313      16000        
    495000   0.99410451     0.040304373   -3.3973273      1.4909704     -1.9063569      16000        
    496000   0.98920554     0.079480827   -3.3911677      1.4836228     -1.9075448      16000        
    497000   0.98914671    -0.024245371   -3.3916563      1.4835346     -1.9081217      16000        
    498000   1.0005726      0.00049074478 -3.4101978      1.5006713     -1.9095265      16000        
    499000   0.99406831    -0.012879837   -3.4001555      1.4909161     -1.9092394      16000        
    500000   0.98920864     0.018083964   -3.3950391      1.4836275     -1.9114116      16000        
    501000   0.99118073     0.037685673   -3.3990399      1.4865852     -1.9124547      16000        
    502000   0.980316       0.033022214   -3.3837031      1.4702902     -1.9134129      16000        
    503000   0.99403121     0.033688901   -3.4056565      1.4908604     -1.9147961      16000        
    504000   0.98792048     0.0025744684  -3.3961548      1.4816955     -1.9144593      16000        
    505000   0.98250582     0.030516862   -3.389052       1.4735745     -1.9154775      16000        
    506000   0.98546037     0.024126548   -3.3954914      1.4780058     -1.9174856      16000        
    507000   0.98801935     0.036926031   -3.4008965      1.4818438     -1.9190527      16000        
    508000   0.98914629     0.01003564    -3.4027183      1.483534      -1.9191843      16000        
    509000   0.98355844     0.026239293   -3.3958188      1.4751532     -1.9206655      16000        
    510000   0.98086926    -0.0029151336  -3.3909915      1.47112       -1.9198715      16000        
    511000   0.98759408     0.017495464   -3.4039758      1.4812059     -1.9227699      16000        
    512000   0.9817226      0.021222003   -3.3960126      1.4723998     -1.9236127      16000        
    513000   0.97423597     0.081757769   -3.3859315      1.4611713     -1.9247602      16000        
    514000   0.99268737     0.004168637   -3.4144287      1.4888449     -1.9255837      16000        
    515000   0.98758701     0.0098133856  -3.4074598      1.4811953     -1.9262645      16000        
    516000   0.99327846     0.0082204222  -3.4185758      1.4897315     -1.9288443      16000        
    517000   0.99479871     0.036477361   -3.4224693      1.4920115     -1.9304578      16000        
    518000   0.99276474     0.00045789774 -3.4206771      1.488961      -1.9317162      16000        
    519000   0.9885188     -0.0028690286  -3.4140607      1.4825929     -1.9314678      16000        
    520000   0.99982082     0.071970083   -3.4339054      1.4995438     -1.9343617      16000        
    521000   0.98530293     0.017501885   -3.4115422      1.4777697     -1.9337725      16000        
    522000   0.98611886     0.013897064   -3.4151877      1.4789934     -1.9361943      16000        
    523000   0.98701377     0.045513636   -3.416636       1.4803356     -1.9363004      16000        
    524000   0.97711666     0.016322293   -3.4014935      1.4654918     -1.9360018      16000        
    525000   0.98254055     0.027922782   -3.4120415      1.4736266     -1.9384149      16000        
    526000   0.9883399      0.041516114   -3.4214803      1.4823245     -1.9391558      16000        
    527000   0.99041683    -0.0030466858  -3.4255677      1.4854395     -1.9401281      16000        
    528000   0.9966281      0.032507744   -3.4373117      1.4947553     -1.9425564      16000        
    529000   1.0016671      0.022326587   -3.4475966      1.5023128     -1.9452837      16000        
    530000   0.98833952     0.03766779    -3.4274553      1.482324      -1.9451314      16000        
    531000   0.9859074      0.043218529   -3.4238597      1.4786762     -1.9451835      16000        
    532000   0.99385077     0.026751495   -3.4378747      1.4905898     -1.9472849      16000        
    533000   0.9964643      0.026733215   -3.4430287      1.4945096     -1.9485191      16000        
    534000   0.98891825     0.063043949   -3.4318199      1.483192      -1.9486279      16000        
    535000   0.99983367     0.023901496   -3.4494252      1.499563      -1.9498622      16000        
    536000   1.0022744      0.023984546   -3.4552437      1.5032236     -1.9520201      16000        
    537000   1.0019037      0.040294576   -3.455961       1.5026676     -1.9532934      16000        
    538000   0.99429204     0.0297042     -3.4451947      1.4912516     -1.9539431      16000        
    539000   0.99671448     0.013929324   -3.4493715      1.4948848     -1.9544866      16000        
    540000   1.0105039      0.044791792   -3.4741679      1.5155664     -1.9586015      16000        
    541000   0.99647866     0.049357772   -3.4527697      1.4945312     -1.9582386      16000        
    542000   0.99592126     0.015408523   -3.4524505      1.4936952     -1.9587553      16000        
    543000   0.99389688     0.023081483   -3.4487497      1.490659      -1.9580907      16000        
    544000   1.0063559      0.014771224   -3.4705712      1.5093452     -1.961226       16000        
    545000   0.99058092     0.0093823102  -3.446109       1.4856856     -1.9604233      16000        
    546000   0.99454337     0.072663688   -3.4554387      1.4916286     -1.9638101      16000        
    547000   0.99528751     0.078640695   -3.4578416      1.4927446     -1.9650969      16000        
    548000   1.0065679      0.036086551   -3.4757567      1.5096631     -1.9660936      16000        
    549000   0.99470777     0.050456687   -3.4578346      1.4918751     -1.9659595      16000        
    550000   0.99258212     0.021251937   -3.4554048      1.4886871     -1.9667177      16000        
    551000   0.98935242     0.0035227859  -3.4503016      1.4838431     -1.9664585      16000        
    552000   0.99788703     0.0090017869  -3.4657104      1.4966434     -1.969067       16000        
    553000   0.98081423     0.033517205   -3.4403268      1.4710374     -1.9692894      16000        
    554000   0.9827364      0.019974489   -3.4441371      1.4739203     -1.9702168      16000        
    555000   1.0024004      0.04158753    -3.4763643      1.5034126     -1.9729518      16000        
    556000   1.0011589      0.054979184   -3.47534        1.5015507     -1.9737893      16000        
    557000   0.99235462     0.024930362   -3.4628536      1.4883459     -1.9745078      16000        
    558000   1.0142626      0.038919247   -3.4990294      1.5212037     -1.9778257      16000        
    559000   0.9957095      0.054192903   -3.4705227      1.4933776     -1.9771452      16000        
    560000   0.98972236    -0.0099410851  -3.4610639      1.484398      -1.9766659      16000        
    561000   0.98754364     0.0396196     -3.4592788      1.4811303     -1.9781485      16000        
    562000   0.98494451    -0.013745781   -3.4563532      1.4772321     -1.9791211      16000        
    563000   0.98821962     0.040129293   -3.4627745      1.4821441     -1.9806304      16000        
    564000   0.99023234     0.053221356   -3.4679346      1.4851628     -1.9827717      16000        
    565000   0.99507509     0.0079100916  -3.4770543      1.4924261     -1.9846283      16000        
    566000   0.99962334     0.040863401   -3.4840997      1.4992476     -1.9848521      16000        
    567000   0.99660839     0.029063871   -3.4791981      1.4947257     -1.9844724      16000        
    568000   0.99023294    -0.017585442   -3.4702225      1.4851637     -1.9850588      16000        
    569000   0.98403852     0.068096407   -3.4633747      1.4758733     -1.9875015      16000        
    570000   1.0042551      0.061796663   -3.4968192      1.5061943     -1.9906249      16000        
    571000   0.98435086     0.046574153   -3.4652689      1.4763417     -1.9889272      16000        
    572000   1.0000774      0.044975637   -3.4915029      1.4999285     -1.9915744      16000        
    573000   0.98233004     0.043469609   -3.4639825      1.4733109     -1.9906716      16000        
    574000   0.9830212      0.0057154091  -3.4655586      1.4743475     -1.9912111      16000        
    575000   0.97625619     0.0083455936  -3.4565575      1.4642012     -1.9923563      16000        
    576000   0.98921068     0.022238971   -3.4776319      1.4836305     -1.9940014      16000        
    577000   0.96969939    -0.010055985   -3.4473533      1.4543673     -1.9929861      16000        
    578000   0.98381189     0.047603077   -3.4708639      1.4755334     -1.9953306      16000        
    579000   0.96957884     0.020459833   -3.4502725      1.4541865     -1.996086       16000        
    580000   0.99894129     0.032038421   -3.4976016      1.4982246     -1.999377       16000        
    581000   0.97914405     0.049158137   -3.4676143      1.4685325     -1.9990819      16000        
    582000   0.98418372     0.035121801   -3.475453       1.4760911     -1.999362       16000        
    583000   0.97498839     0.01244176    -3.4618081      1.4622998     -1.9995083      16000        
    584000   0.97233834     0.008459538   -3.458344       1.4583252     -2.0000188      16000        
    585000   0.97948532     0.0046823983  -3.4705942      1.4690443     -2.0015498      16000        
    586000   0.97725143     0.03579923    -3.4692579      1.4656939     -2.003564       16000        
    587000   0.99764005     0.015971692   -3.5028029      1.496273      -2.0065299      16000        
    588000   0.98321796     0.049053791   -3.4813592      1.4746426     -2.0067167      16000        
    589000   0.98738735     0.03490045    -3.4881315      1.4808959     -2.0072356      16000        
    590000   0.97670007     0.014987408   -3.4723536      1.464867      -2.0074866      16000        
    591000   0.9718586     -0.0026561659  -3.4656385      1.4576057     -2.0080328      16000        
    592000   0.97560066     0.024367186   -3.4730844      1.4632181     -2.0098664      16000        
    593000   0.97248284    -0.017866199   -3.4691252      1.4585419     -2.0105833      16000        
    594000   0.9873497      0.023174711   -3.4942791      1.4808394     -2.0134397      16000        
    595000   0.9885096      0.0054810726  -3.4957021      1.4825791     -2.013123       16000        
    596000   0.97307988     0.04239042    -3.4737565      1.4594374     -2.0143191      16000        
    597000   0.99354062     0.023468461   -3.5073221      1.4901246     -2.0171975      16000        
    598000   0.98584861     3.2202371e-05 -3.4953619      1.4785881     -2.0167738      16000        
    599000   0.98644679     0.040130057   -3.4977685      1.4794852     -2.0182833      16000        
    600000   0.9917054      0.022065934   -3.5059272      1.4873722     -2.018555       16000        
    601000   0.98835967    -0.010279237   -3.5025495      1.4823542     -2.0201953      16000        
    602000   0.98722322     0.050837888   -3.5024361      1.4806497     -2.0217863      16000        
    603000   0.98064529    -0.0084820622  -3.4920766      1.4707841     -2.0212925      16000        
    604000   0.98383239     0.046645994   -3.4987153      1.4755641     -2.0231512      16000        
    605000   0.99680819     0.011337521   -3.5211857      1.4950254     -2.0261603      16000        
    606000   0.99257761     0.016377743   -3.5150662      1.4886803     -2.0263859      16000        
    607000   0.98834409     0.009827088   -3.5086629      1.4823308     -2.0263321      16000        
    608000   0.9853085      0.047120526   -3.5061947      1.477778      -2.0284167      16000        
    609000   0.99114154     0.024277857   -3.5170612      1.4865265     -2.0305348      16000        
    610000   0.98712274    -0.0020217264  -3.5103501      1.480499      -2.0298511      16000        
    611000   0.99365771     0.015895074   -3.5212106      1.4903003     -2.0309104      16000        
    612000   0.9914509      0.026383562   -3.5195603      1.4869905     -2.0325699      16000        
    613000   0.97789849     0.026125315   -3.4991998      1.4666644     -2.0325354      16000        
    614000   0.99182539     0.038891275   -3.5220573      1.4875521     -2.0345052      16000        
    615000   0.98133996    -0.0054903109  -3.5063753      1.4718259     -2.0345493      16000        
    616000   0.97931261     0.048621399   -3.5045305      1.4687853     -2.0357452      16000        
    617000   0.98167799     0.027388326   -3.5093623      1.4723329     -2.0370293      16000        
    618000   0.98391808     0.050105402   -3.5142394      1.4756926     -2.0385468      16000        
    619000   0.98242148     0.024291789   -3.5120254      1.473448      -2.0385774      16000        
    620000   0.98247519     0.0057534815  -3.5130674      1.4735286     -2.0395388      16000        
    621000   0.97801711    -0.0073783602  -3.5072763      1.4668423     -2.040434       16000        
    622000   0.98305039     0.021981312   -3.5165534      1.4743913     -2.0421621      16000        
    623000   0.98147445     0.029607156   -3.5148396      1.4720277     -2.0428119      16000        
    624000   0.98837385    -0.00035702089 -3.5260116      1.4823754     -2.0436361      16000        
    625000   0.98575364     0.013139684   -3.5248873      1.4784456     -2.0464417      16000        
    626000   0.98779578     0.0089775226  -3.5284519      1.4815085     -2.0469435      16000        
    627000   0.97636393     0.031589876   -3.5115731      1.4643628     -2.0472103      16000        
    628000   0.97945087     0.073005659   -3.5184305      1.4689927     -2.0494378      16000        
    629000   0.97510652     0.0088371351  -3.5111597      1.4624769     -2.0486828      16000        
    630000   0.99355436     0.018989073   -3.5415836      1.4901453     -2.0514383      16000        
    631000   0.98694607    -0.015571088   -3.5307357      1.480234      -2.0505016      16000        
    632000   0.97924068    -0.037925087   -3.5194094      1.4686774     -2.050732       16000        
    633000   0.95554799     0.05832933    -3.4848403      1.4331428     -2.0516975      16000        
    634000   0.98203974    -0.0096633194  -3.5261777      1.4728755     -2.0533022      16000        
    635000   0.9774199     -0.00059349496 -3.5207685      1.4659466     -2.0548219      16000        
    636000   0.98133451     0.039216363   -3.5282881      1.4718178     -2.0564703      16000        
    637000   0.97210797     0.045762185   -3.5140195      1.4579797     -2.0560398      16000        
    638000   0.97218636     0.047811046   -3.5160715      1.4580973     -2.0579743      16000        
    639000   0.97841975    -0.024449159   -3.5253521      1.4674462     -2.057906       16000        
    640000   0.96532586     0.041325072   -3.5063358      1.4478078     -2.058528       16000        
    641000   0.97850004     0.017396497   -3.5280536      1.4675666     -2.060487       16000        
    642000   0.97165055    -0.009769958   -3.5176131      1.4572936     -2.0603194      16000        
    643000   0.97538938     0.0036158998  -3.5245836      1.4629012     -2.0616825      16000        
    644000   0.97671998     0.041312772   -3.5278195      1.4648968     -2.0629227      16000        
    645000   0.97267877     0.042685013   -3.5235706      1.4588358     -2.0647349      16000        
    646000   0.97392098     0.045383565   -3.5259998      1.4606989     -2.0653009      16000        
    647000   0.99500725    -0.019526055   -3.5603492      1.4923243     -2.0680249      16000        
    648000   0.9651958      0.0038126457  -3.5140046      1.4476127     -2.0663919      16000        
    649000   0.96862568     0.036267311   -3.5194879      1.4527569     -2.066731       16000        
    650000   0.97518958     0.0088539575  -3.5320693      1.4626015     -2.0694678      16000        
    651000   0.98422392    -0.011030928   -3.5466297      1.4761513     -2.0704784      16000        
    652000   0.97952453     0.034935721   -3.5407493      1.4691031     -2.0716462      16000        
    653000   0.97498686     0.026491607   -3.5342893      1.4622975     -2.0719918      16000        
    654000   0.98402919     0.049490774   -3.5498504      1.4758593     -2.0739912      16000        
    655000   0.97863725     0.056271151   -3.5433142      1.4677724     -2.0755418      16000        
    656000   0.97894314     0.01739397    -3.5449314      1.4682312     -2.0767003      16000        
    657000   0.97922762     0.026689579   -3.5458934      1.4686578     -2.0772356      16000        
    658000   0.97197999     0.034282882   -3.5351474      1.4577877     -2.0773597      16000        
    659000   0.97541346    -0.0099076451  -3.5402295      1.4629373     -2.0772922      16000        
    660000   0.98324226     0.037295406   -3.555301       1.474679      -2.080622       16000        
    661000   0.97492987     0.042695306   -3.5442856      1.462212      -2.0820736      16000        
    662000   0.99486284     0.020797762   -3.5768162      1.4921077     -2.0847085      16000        
    663000   0.97910029     0.049708441   -3.5521685      1.4684669     -2.0837017      16000        
    664000   0.97624805     0.062938754   -3.5489741      1.464189      -2.0847851      16000        
    665000   0.97711587     0.0046099271  -3.5499482      1.4654906     -2.0844576      16000        
    666000   0.9662811      0.037453426   -3.5342344      1.4492405     -2.084994       16000        
    667000   0.97872109     0.034277116   -3.5556564      1.4678981     -2.0877582      16000        
    668000   0.9743645      0.0071575083  -3.5487999      1.4613641     -2.0874358      16000        
    669000   0.96205719     0.032598798   -3.5310946      1.4429054     -2.0881892      16000        
    670000   0.97022226     0.03211647    -3.5444295      1.4551515     -2.089278       16000        
    671000   0.96408509    -0.002225393   -3.5349402      1.4459469     -2.0889933      16000        
    672000   0.96877456    -0.016496089   -3.5439504      1.4529802     -2.0909703      16000        
    673000   0.95826126     0.011343495   -3.526991       1.4372122     -2.0897788      16000        
    674000   0.96220593     0.032256065   -3.5353934      1.4431285     -2.0922649      16000        
    675000   0.96607985     0.0037437585  -3.5419304      1.4489386     -2.0929918      16000        
    676000   0.95356336     0.011885681   -3.5237211      1.4301662     -2.0935548      16000        
    677000   0.97139407    -0.049875471   -3.5511576      1.456909      -2.0942486      16000        
    678000   0.97548583     0.046014778   -3.5607039      1.4630458     -2.0976581      16000        
    679000   0.97637627    -0.0099686164  -3.5626617      1.4643813     -2.0982804      16000        
    680000   0.97232899    -0.010958872   -3.5571716      1.4583112     -2.0988604      16000        
    681000   0.96468194    -0.010258111   -3.5452467      1.446842      -2.0984047      16000        
    682000   0.96553624     0.030279319   -3.5489358      1.4481233     -2.1008125      16000        
    683000   0.97184952    -0.012673004   -3.5589648      1.4575921     -2.1013727      16000        
    684000   0.97367163     0.057548229   -3.563805       1.4603249     -2.1034801      16000        
    685000   0.96494726     0.0017568701  -3.549732       1.44724       -2.102492       16000        
    686000   0.97199541     0.038632162   -3.5626905      1.4578109     -2.1048796      16000        
    687000   0.97613743     0.032465682   -3.5704097      1.4640231     -2.1063866      16000        
    688000   0.97348914    -0.0053103533  -3.5671001      1.4600512     -2.1070489      16000        
    689000   0.96871567     0.05863312    -3.5607346      1.4528919     -2.1078427      16000        
    690000   0.97325947     0.040629131   -3.5683305      1.4597067     -2.1086237      16000        
    691000   0.96743296     0.013105163   -3.5594423      1.450968      -2.1084743      16000        
    692000   0.95996747     0.017172766   -3.548642       1.4397712     -2.1088708      16000        
    693000   0.95271847     0.025813437   -3.5382264      1.4288991     -2.1093273      16000        
    694000   0.96227217     0.01818763    -3.5544217      1.4432278     -2.1111939      16000        
    695000   0.9618245      0.012030056   -3.5550722      1.4425564     -2.1125158      16000        
    696000   0.97233749    -0.0026598009  -3.5726357      1.4583239     -2.1143118      16000        
    697000   0.97618286     0.0031420189  -3.5801313      1.4640912     -2.1160401      16000        
    698000   0.96938589     0.029917107   -3.5696034      1.4538971     -2.1157063      16000        
    699000   0.98094562     0.016848234   -3.5902428      1.4712345     -2.1190083      16000        
    700000   0.9732003      0.02650958    -3.5780166      1.459618      -2.1183986      16000        
    701000   0.98618041     0.048297637   -3.6006829      1.4790857     -2.1215972      16000        
    702000   0.98513704     0.056178896   -3.6006438      1.4775208     -2.1231229      16000        
    703000   0.96756732     0.034743296   -3.5723203      1.4511696     -2.1211508      16000        
    704000   0.96520689     0.040870428   -3.5699307      1.4476294     -2.1223014      16000        
    705000   0.97113157    -0.027632401   -3.578723       1.4565153     -2.1222077      16000        
    706000   0.97165757     0.014720608   -3.5815221      1.4573042     -2.1242179      16000        
    707000   0.97100766     0.057469797   -3.5822807      1.4563294     -2.1259513      16000        
    708000   0.96644782     0.04579911    -3.5755505      1.4494905     -2.1260599      16000        
    709000   0.96618878     0.03535283    -3.5763409      1.449102      -2.1272388      16000        
    710000   0.95885862     0.0048894114  -3.5650597      1.4381081     -2.1269515      16000        
    711000   0.96475497     0.04105359    -3.5763883      1.4469516     -2.1294367      16000        
    712000   0.96363581     0.038854305   -3.5751526      1.445273      -2.1298796      16000        
    713000   0.96272838     0.02246832    -3.5749669      1.4439121     -2.1310548      16000        
    714000   0.95689762     0.019354743   -3.5665428      1.435167      -2.1313758      16000        
    715000   0.95971968     0.053465222   -3.5726284      1.4393996     -2.1332289      16000        
    716000   0.96954574    -0.0051550983  -3.5871328      1.4541368     -2.132996       16000        
    717000   0.96528167     0.049056249   -3.581633       1.4477415     -2.1338915      16000        
    718000   0.96638165     0.032969238   -3.5846035      1.4493913     -2.1352122      16000        
    719000   0.96139772     0.0069856314  -3.5774808      1.4419163     -2.1355645      16000        
    720000   0.96763343    -0.027895559   -3.5874428      1.4512687     -2.1361741      16000        
    721000   0.96471106     0.0083764805  -3.5852552      1.4468857     -2.1383695      16000        
    722000   0.95623849     0.040438432   -3.572883       1.4341784     -2.1387046      16000        
    723000   0.97539737     0.018580492   -3.6047999      1.4629132     -2.1418868      16000        
    724000   0.95621615     0.039249574   -3.5752857      1.4341449     -2.1411407      16000        
    725000   0.96986295     0.023333392   -3.5969393      1.4546126     -2.1423267      16000        
    726000   0.96823551     0.033951378   -3.5960211      1.4521717     -2.1438494      16000        
    727000   0.9728618      0.0068148448  -3.6036038      1.4591103     -2.1444936      16000        
    728000   0.95021319     0.054852602   -3.5686294      1.4251416     -2.1434878      16000        
    729000   0.96313001     0.10012087    -3.5913886      1.4445144     -2.1468742      16000        
    730000   0.96454721    -0.028413711   -3.5924792      1.44664       -2.1458392      16000        
    731000   0.96285613     0.030186818   -3.5914718      1.4441037     -2.1473682      16000        
    732000   0.97721142     0.010870497   -3.6162283      1.4656339     -2.1505944      16000        
    733000   0.95652206    -0.012627744   -3.5825163      1.4346037     -2.1479126      16000        
    734000   0.95090129     0.020748392   -3.5757906      1.4261736     -2.149617       16000        
    735000   0.96516977     0.023427299   -3.5992264      1.4475737     -2.1516527      16000        
    736000   0.96934452     0.010039466   -3.606062       1.453835      -2.152227       16000        
    737000   0.95128305     0.028113642   -3.5794584      1.4267462     -2.1527121      16000        
    738000   0.97034069     0.028448447   -3.609983       1.4553291     -2.1546539      16000        
    739000   0.97239026     0.061194883   -3.6153149      1.4584031     -2.1569118      16000        
    740000   0.95467391    -0.063623679   -3.5862376      1.4318319     -2.1544058      16000        
    741000   0.96218587     0.023818892   -3.5997958      1.4430984     -2.1566974      16000        
    742000   0.96392292     0.024606421   -3.6046699      1.4457036     -2.1589662      16000        
    743000   0.96299055     0.013114111   -3.6038956      1.4443053     -2.1595904      16000        
    744000   0.95174427     0.0029669384  -3.5868577      1.427438      -2.1594198      16000        
    745000   0.96464091     0.089845862   -3.608972       1.4467805     -2.1621915      16000        
    746000   0.96428916    -0.0055027256  -3.6082806      1.4462529     -2.1620276      16000        
    747000   0.97072902     0.021299437   -3.6198713      1.4559115     -2.1639597      16000        
    748000   0.96252171    -0.010599141   -3.6071913      1.4436021     -2.1635892      16000        
    749000   0.96777016     0.033223915   -3.6176264      1.4514738     -2.1661526      16000        
    750000   0.97259366     0.049450872   -3.6267197      1.4587081     -2.1680115      16000        
    751000   0.95916698     0.031163075   -3.6060542      1.4385706     -2.1674835      16000        
    752000   0.9654633     -0.059409892   -3.6155796      1.4480139     -2.1675656      16000        
    753000   0.95393568    -0.022528984   -3.598446       1.4307246     -2.1677213      16000        
    754000   0.95402895     0.028123266   -3.6001632      1.4308645     -2.1692987      16000        
    755000   0.95118013    -0.033404362   -3.5944109      1.4265919     -2.1678191      16000        
    756000   0.96589139    -0.010586419   -3.6199813      1.448656      -2.1713253      16000        
    757000   0.97316819     0.0080527173  -3.6323101      1.4595698     -2.1727402      16000        
    758000   0.95839376    -0.036396632   -3.6084572      1.4374109     -2.1710462      16000        
    759000   0.94766161    -0.023882566   -3.5926399      1.4213147     -2.1713252      16000        
    760000   0.95503597    -0.00035706069 -3.6060751      1.4323749     -2.1737002      16000        
    761000   0.96644082     0.054967992   -3.625876       1.44948       -2.176396       16000        
    762000   0.96213284     0.014163951   -3.6204149      1.4430189     -2.177396       16000        
    763000   0.96900737     0.010659686   -3.6318474      1.4533294     -2.178518       16000        
    764000   0.95939062     0.0032411039  -3.6168692      1.4389061     -2.1779631      16000        
    765000   0.96894659     0.043546854   -3.6342737      1.4532382     -2.1810354      16000        
    766000   0.95371823    -0.0014063435  -3.6101909      1.4303985     -2.1797923      16000        
    767000   0.95068195     0.03685726    -3.606481       1.4258447     -2.1806363      16000        
    768000   0.95321587     0.034173003   -3.6116924      1.4296451     -2.1820473      16000        
    769000   0.96227332     0.010767162   -3.6271091      1.4432296     -2.1838796      16000        
    770000   0.95302447     0.0063058523  -3.6127192      1.429358      -2.1833612      16000        
    771000   0.9534604      0.051687057   -3.6140252      1.4300118     -2.1840134      16000        
    772000   0.94333215     0.049835756   -3.5984146      1.4148214     -2.1835932      16000        
[...]
    816000   0.96033098    -0.001581421   -3.6677166      1.4403164     -2.2274002      16000        
    817000   0.95430154     0.020458968   -3.6583916      1.4312734     -2.2271183      16000        
    818000   0.95472789     0.016220601   -3.6601444      1.4319128     -2.2282315      16000        
    819000   0.95556128    -0.016004583   -3.6609048      1.4331627     -2.227742       16000        
    820000   0.948029       0.022579739   -3.6509636      1.4218657     -2.2290979      16000        
    821000   0.95594119     0.00035419736 -3.6645618      1.4337325     -2.2308293      16000        
    822000   0.94770856    -0.029961132   -3.6506897      1.4213851     -2.2293046      16000        
    823000   0.92991552    -0.01458217    -3.6243163      1.3946989     -2.2296174      16000        
    824000   0.96012842    -0.021794559   -3.6734059      1.4400126     -2.2333933      16000        
    825000   0.95173061     0.021994411   -3.6608513      1.4274175     -2.2334339      16000        
    826000   0.95288094     0.018526196   -3.6633646      1.4291427     -2.2342218      16000        
    827000   0.95848939    -0.0043372514  -3.6728627      1.4375544     -2.2353083      16000        
    828000   0.95035714    -0.005898196   -3.6597635      1.4253575     -2.234406       16000        
    829000   0.95370174    -0.013457568   -3.6681439      1.4303738     -2.2377701      16000        
    830000   0.95641765     0.011136479   -3.6742251      1.4344471     -2.239778       16000        
    831000   0.9589406      0.035394698   -3.6790287      1.4382311     -2.2407976      16000        
    832000   0.95398255     0.019638027   -3.6714288      1.430795      -2.2406339      16000        
    833000   0.94393909     0.013090331   -3.6554005      1.4157316     -2.2396688      16000        
    834000   0.9584054      0.012765279   -3.6806591      1.4374284     -2.2432307      16000        
    835000   0.9530705      0.023214348   -3.6726249      1.429427      -2.2431978      16000        
    836000   0.95790982     0.014582771   -3.6816657      1.4366851     -2.2449806      16000        
    837000   0.96270188     0.011003993   -3.6901514      1.4438723     -2.2462791      16000        
    838000   0.94448264     0.0071121435  -3.6602623      1.4165469     -2.2437154      16000        
    839000   0.95629519    -0.029753375   -3.6805604      1.4342635     -2.2462969      16000        
    840000   0.94222165    -0.016919347   -3.6581656      1.4131558     -2.2450098      16000        
    841000   0.96236804     0.027873317   -3.6930191      1.4433716     -2.2496475      16000        
    842000   0.92985719    -0.011256817   -3.6412102      1.3946114     -2.2465987      16000        
    843000   0.94694067     0.018386663   -3.6690677      1.4202335     -2.2488343      16000        
    844000   0.94979143     0.01406647    -3.6747401      1.4245091     -2.250231       16000        
    845000   0.94627065     0.036909626   -3.670496       1.4192286     -2.2512674      16000        
    846000   0.94780373     0.023061298   -3.6746393      1.4215279     -2.2531114      16000        
    847000   0.94271198     0.027924081   -3.667345       1.4138912     -2.2534538      16000        
    848000   0.93856331     0.0023274229  -3.6600578      1.407669      -2.2523888      16000        
    849000   0.94698516    -0.00062806247 -3.6746091      1.4203002     -2.2543089      16000        
    850000   0.94029197    -0.0091102785  -3.6642167      1.4102616     -2.2539551      16000        
    851000   0.95173632    -0.075221186   -3.6819022      1.427426      -2.2544762      16000        
    852000   0.94011442     0.030670817   -3.6652338      1.4099954     -2.2552384      16000        
    853000   0.93943455     0.0022011167  -3.6666923      1.4089757     -2.2577166      16000        
    854000   0.94543269    -0.010765891   -3.6763084      1.4179718     -2.2583366      16000        
    855000   0.96484421     0.022722046   -3.7086594      1.4470854     -2.261574       16000        
    856000   0.94729734     0.020876509   -3.680887       1.4207684     -2.2601186      16000        
    857000   0.94366682     0.031312733   -3.6768115      1.4153233     -2.2614882      16000        
    858000   0.94298206    -0.0072201056  -3.6754075      1.4142963     -2.2611112      16000        
    859000   0.94977343    -0.022626942   -3.6884704      1.4244821     -2.2639883      16000        
    860000   0.95330866     0.010453044   -3.6950265      1.4297842     -2.2652422      16000        
    861000   0.9442205     -0.025024133   -3.6802975      1.4161537     -2.2641438      16000        
    862000   0.94674458     0.013887922   -3.6857265      1.4199394     -2.2657872      16000        
    863000   0.96100183     0.022840256   -3.710182       1.4413226     -2.2688595      16000        
    864000   0.94920473    -0.024019592   -3.6905424      1.4236291     -2.2669133      16000        
    865000   0.93789835     0.013203232   -3.674761       1.4066717     -2.2680893      16000        
    866000   0.95533005     0.0072451136  -3.7033986      1.4328159     -2.2705827      16000        
    867000   0.95439165     0.015077604   -3.7030678      1.4314085     -2.2716593      16000        
    868000   0.94030092     0.025831455   -3.6814136      1.4102751     -2.2711385      16000        
    869000   0.95188038    -0.019363764   -3.699421       1.4276421     -2.2717789      16000        
    870000   0.94010685     0.030912613   -3.6831069      1.409984      -2.2731229      16000        
    871000   0.94324747     0.0067666429  -3.6877313      1.4146944     -2.273037       16000        
    872000   0.95741152     0.021853696   -3.7127313      1.4359378     -2.2767935      16000        
    873000   0.95806368    -0.025350292   -3.713922       1.4369159     -2.2770061      16000        
    874000   0.94413582     0.054683231   -3.6940215      1.4160267     -2.2779947      16000        
    875000   0.93762885    -0.0064890582  -3.6825073      1.4062675     -2.2762398      16000        
    876000   0.95254698     0.016054442   -3.708215       1.4286419     -2.2795731      16000        
    877000   0.94882676    -0.037367437   -3.7017173      1.4230622     -2.2786551      16000        
    878000   0.93726626    -0.0061488723  -3.6851121      1.4057237     -2.2793884      16000        
    879000   0.94944516     0.029616225   -3.7067692      1.4239897     -2.2827795      16000        
    880000   0.94885675     0.084211201   -3.7071644      1.4231072     -2.2840572      16000        
    881000   0.94201284     0.01339335    -3.6951445      1.4128426     -2.2823018      16000        
    882000   0.94043903     0.012420122   -3.6929623      1.4104822     -2.2824801      16000        
    883000   0.94968564    -0.012709123   -3.7094132      1.4243504     -2.2850628      16000        
    884000   0.95536761     0.02230861    -3.7192166      1.4328723     -2.2863443      16000        
    885000   0.93004433     0.020230274   -3.6795384      1.3948921     -2.2846463      16000        
    886000   0.93848401    -0.026121082   -3.6927857      1.4075501     -2.2852357      16000        
    887000   0.94472964    -0.0082427031  -3.7039219      1.4169173     -2.2870046      16000        
    888000   0.94731111    -0.010104439   -3.7095236      1.420789      -2.2887346      16000        
    889000   0.94760167    -0.0070702331  -3.7108324      1.4212248     -2.2896076      16000        
    890000   0.95351794     0.018794199   -3.7211689      1.4300981     -2.2910708      16000        
    891000   0.93615419    -0.019349967   -3.6943026      1.4040558     -2.2902468      16000        
    892000   0.94749131     0.014927066   -3.7136275      1.4210593     -2.2925681      16000        
    893000   0.94969871    -0.00070728979 -3.7171734      1.42437       -2.2928034      16000        
    894000   0.93247501     0.016201988   -3.6912997      1.3985377     -2.292762       16000        
    895000   0.94751517     0.0065566488  -3.7166813      1.4210951     -2.2955862      16000        
    896000   0.93983882    -0.057689851   -3.7034144      1.409582      -2.2938323      16000        
    897000   0.94458623     0.027690069   -3.7139817      1.4167022     -2.2972795      16000        
    898000   0.94461998     0.0068989551  -3.7131049      1.4167529     -2.296352       16000        
    899000   0.94580758    -0.010167226   -3.7166342      1.418534      -2.2981001      16000        
    900000   0.94070082     0.0266651     -3.7083137      1.4108749     -2.2974389      16000        
    901000   0.94662015    -0.0041419394  -3.7197518      1.4197527     -2.2999991      16000        
    902000   0.93471484     0.015108452   -3.7012165      1.401897      -2.2993195      16000        
    903000   0.93514665     0.026045602   -3.7028525      1.4025446     -2.3003079      16000        
    904000   0.93762627     0.012207565   -3.7083409      1.4062636     -2.3020773      16000        
    905000   0.94132493     0.021582007   -3.7149044      1.4118109     -2.3030935      16000        
    906000   0.93328226    -0.00541187    -3.7014495      1.3997484     -2.3017011      16000        
    907000   0.93604242    -0.029265588   -3.7068114      1.4038881     -2.3029233      16000        
    908000   0.94257302     0.040361396   -3.71953        1.4136828     -2.3058472      16000        
    909000   0.9453383      0.036709134   -3.7250771      1.4178302     -2.3072469      16000        
    910000   0.93689272    -0.0037411759  -3.7117085      1.4051634     -2.3065451      16000        
    911000   0.94419248    -0.039231415   -3.7237535      1.4161117     -2.3076418      16000        
    912000   0.9446045     -0.011399803   -3.7248357      1.4167296     -2.308106       16000        
    913000   0.93408091    -0.012790705   -3.7102159      1.4009462     -2.3092697      16000        
    914000   0.93909718    -0.0031547515  -3.7182189      1.4084697     -2.3097492      16000        
    915000   0.94098566    -0.001721007   -3.7214986      1.4113021     -2.3101965      16000        
    916000   0.94739        0.028862902   -3.7341012      1.4209074     -2.3131938      16000        
    917000   0.94115169    -0.028193176   -3.7224782      1.4115511     -2.3109271      16000        
    918000   0.93852221     0.063199079   -3.7207495      1.4076073     -2.3131422      16000        
    919000   0.94842688    -0.012366796   -3.7379437      1.4224625     -2.3154812      16000        
    920000   0.93727265    -0.011553903   -3.7213476      1.4057332     -2.3156144      16000        
    921000   0.92920222    -0.0084777838  -3.7082024      1.3936291     -2.3145733      16000        
    922000   0.95871405     0.022314242   -3.7566294      1.4378913     -2.3187381      16000        
    923000   0.9509013      0.002996819   -3.745408       1.4261737     -2.3192343      16000        
    924000   0.91277654    -0.027043039   -3.6828411      1.3689937     -2.3138475      16000        
    925000   0.93706868     0.018807976   -3.7242838      1.4054273     -2.3188564      16000        
    926000   0.94146868     0.051076297   -3.7342222      1.4120265     -2.3221957      16000        
    927000   0.93266439     0.0039253086  -3.7193872      1.3988217     -2.3205654      16000        
    928000   0.93964856     0.010500345   -3.730347       1.4092967     -2.3210504      16000        
    929000   0.95504143     0.0047732577  -3.7567162      1.4323831     -2.3243331      16000        
    930000   0.94794689     0.025855481   -3.7463272      1.4217426     -2.3245846      16000        
    931000   0.94634885     0.0086429163  -3.7446117      1.4193458     -2.3252658      16000        
    932000   0.9411777     -0.0027911508  -3.737332       1.4115901     -2.3257419      16000        
    933000   0.92391964    -0.024205859   -3.7087818      1.3857062     -2.3230756      16000        
    934000   0.93550443    -0.024812796   -3.7297228      1.4030812     -2.3266415      16000        
    935000   0.94973739     0.01730914    -3.7526004      1.424428      -2.3281724      16000        
    936000   0.93699314    -0.01785243    -3.732079       1.405314      -2.326765       16000        
    937000   0.94071017     0.021496477   -3.7406417      1.4108889     -2.3297528      16000        
    938000   0.9408391     -0.0080408604  -3.7410926      1.4110822     -2.3300104      16000        
    939000   0.93830647     0.014517722   -3.7384486      1.4072838     -2.3311648      16000        
    940000   0.92483215    -0.010968895   -3.7162511      1.3870748     -2.3291763      16000        
    941000   0.936629      -5.5408921e-05 -3.737358       1.4047679     -2.3325901      16000        
    942000   0.93583164     0.015955068   -3.7362787      1.403572      -2.3327067      16000        
    943000   0.94256437     0.025879148   -3.7487503      1.4136698     -2.3350805      16000        
    944000   0.92478951    -0.032429792   -3.7202328      1.3870109     -2.333222       16000        
    945000   0.94136139     0.022921461   -3.748711       1.4118656     -2.3368454      16000        
    946000   0.94073558     0.031689223   -3.7486451      1.410927      -2.3377181      16000        
    947000   0.93271848    -0.0011933971  -3.7360549      1.3989028     -2.337152       16000        
    948000   0.93148475    -0.0047156335  -3.7341616      1.3970525     -2.3371091      16000        
    949000   0.93634357     0.026416356   -3.7430369      1.4043398     -2.3386971      16000        
    950000   0.9382636      0.040383059   -3.7474515      1.4072195     -2.3402321      16000        
    951000   0.94262198    -0.028476892   -3.7540694      1.4137562     -2.3403132      16000        
    952000   0.93788882     0.025899708   -3.7488819      1.4066574     -2.3422245      16000        
    953000   0.94023104     0.059881064   -3.7538734      1.4101703     -2.3437032      16000        
    954000   0.92548716     0.0073055206  -3.73065        1.3880572     -2.3425928      16000        
    955000   0.9332382      0.013545049   -3.7428738      1.3996823     -2.3431915      16000        
    956000   0.94815189     0.00052519169 -3.7672395      1.4220501     -2.3451894      16000        
    957000   0.94689816     0.011079886   -3.7669093      1.4201697     -2.3467396      16000        
    958000   0.92123625    -0.046327043   -3.7256023      1.3816816     -2.3439207      16000        
    959000   0.94523161    -0.010354555   -3.7651753      1.4176702     -2.3475051      16000        
    960000   0.92861605    -0.026979561   -3.7387574      1.39275       -2.3460074      16000        
    961000   0.9421403     -0.03523985    -3.7611199      1.4130338     -2.3480861      16000        
    962000   0.92425365    -0.022003208   -3.7352475      1.3862072     -2.3490403      16000        
    963000   0.93314817    -0.016930353   -3.748807       1.3995473     -2.3492597      16000        
    964000   0.93427818    -0.014007003   -3.7520544      1.4012421     -2.3508123      16000        
    965000   0.92290614     0.0087768065  -3.7346827      1.3841862     -2.3504965      16000        
    966000   0.93949144     0.0290619     -3.7632774      1.409061      -2.3542164      16000        
    967000   0.92900824    -0.0053144161  -3.7462226      1.3933382     -2.3528844      16000        
    968000   0.92869967    -0.010515487   -3.7459356      1.3928754     -2.3530603      16000        
    969000   0.9325501      0.013499278   -3.7537152      1.3986503     -2.3550649      16000        
    970000   0.93271181    -0.025809656   -3.7532549      1.3988928     -2.354362       16000        
    971000   0.9301322      0.015020431   -3.7520738      1.3950239     -2.3570499      16000        
    972000   0.93630749    -0.033825201   -3.7608217      1.4042857     -2.3565361      16000        
    973000   0.92939172    -0.033258136   -3.7510372      1.3939133     -2.3571238      16000        
    974000   0.92824891    -0.035340728   -3.7493866      1.3921993     -2.3571873      16000        
    975000   0.93691012     0.027550953   -3.765493       1.4051895     -2.3603035      16000        
    976000   0.93309459     0.05802286    -3.7601421      1.3994669     -2.3606752      16000        
    977000   0.93129585     0.0070213372  -3.7575788      1.3967692     -2.3608096      16000        
    978000   0.93201886     0.0036515778  -3.7598413      1.3978535     -2.3619878      16000        
    979000   0.94167279     0.051914501   -3.7771709      1.4123326     -2.3648383      16000        
    980000   0.93091908     0.0050662302  -3.7592955      1.3962041     -2.3630914      16000        
    981000   0.93426798     0.029183283   -3.7661926      1.4012268     -2.3649658      16000        
    982000   0.93106443     0.060921601   -3.7627984      1.3964221     -2.3663763      16000        
    983000   0.93607852    -0.011891078   -3.7707662      1.4039423     -2.3668239      16000        
    984000   0.93630672     0.0015477299  -3.7716502      1.4042845     -2.3673657      16000        
    985000   0.93113476    -0.0059833888  -3.7634863      1.3965275     -2.3669587      16000        
    986000   0.9345142      0.054330545   -3.7707818      1.4015961     -2.3691857      16000        
    987000   0.94226177     0.03406189    -3.7849578      1.413216      -2.3717418      16000        
    988000   0.9294605     -0.0055689319  -3.7637944      1.3940165     -2.369778       16000        
    989000   0.91298625     0.013351136   -3.7390243      1.3693082     -2.3697161      16000        
    990000   0.91571101    -0.039667577   -3.7425933      1.3733948     -2.3691985      16000        
    991000   0.93356494     0.0054286513  -3.772711       1.4001724     -2.3725387      16000        
    992000   0.94391804    -0.012059109   -3.7899525      1.4157001     -2.3742524      16000        
    993000   0.93053632     0.018955245   -3.7700826      1.39563       -2.3744525      16000        
    994000   0.931411      -0.0040416054  -3.7712512      1.3969419     -2.3743093      16000        
    995000   0.92773658     0.046261068   -3.7669138      1.3914309     -2.3754829      16000        
    996000   0.9358895      0.0095998671  -3.780397       1.4036588     -2.3767382      16000        
    997000   0.93623067     0.0059853219  -3.781388       1.4041705     -2.3772175      16000        
    998000   0.93386378     0.014457485   -3.7783904      1.4006206     -2.3777698      16000        
    999000   0.93109954     0.024745693   -3.776025       1.3964747     -2.3795502      16000        
   1000000   0.92580556     0.00081634558 -3.7674727      1.3885347     -2.3789379      16000        
Loop time of 2485.34 on 1 procs for 1000000 steps with 8000 atoms

Performance: 173818.937 tau/day, 402.359 timesteps/s
99.8% CPU use with 1 MPI tasks x no OpenMP threads

MPI task timing breakdown:
Section |  min time  |  avg time  |  max time  |%varavg| %total
---------------------------------------------------------------
Pair    | 1961.6     | 1961.6     | 1961.6     |   0.0 | 78.93
Neigh   | 426.07     | 426.07     | 426.07     |   0.0 | 17.14
Comm    | 35.727     | 35.727     | 35.727     |   0.0 |  1.44
Output  | 0.04388    | 0.04388    | 0.04388    |   0.0 |  0.00
Modify  | 52.391     | 52.391     | 52.391     |   0.0 |  2.11
Other   |            | 9.533      |            |       |  0.38

Nlocal:           8000 ave        8000 max        8000 min
Histogram: 1 0 0 0 0 0 0 0 0 0
Nghost:           6213 ave        6213 max        6213 min
Histogram: 1 0 0 0 0 0 0 0 0 0
Neighs:         205541 ave      205541 max      205541 min
Histogram: 1 0 0 0 0 0 0 0 0 0

Total # of neighbors = 205541
Ave neighs/atom = 25.692625
Neighbor list builds = 50000
Dangerous builds not checked
Total wall time: 0:41:25
