LAMMPS (23 Jun 2022 - Update 2)
Reading data file ...
  orthogonal box = (-11.313708 -11.313708 -11.313708) to (11.313708 11.313708 11.313708)
  1 by 1 by 1 MPI processor grid
  reading atoms ...
  256 atoms
  read_data CPU = 0.008 seconds
Generated 0 of 0 mixed pair_coeff terms from geometric mixing rule
Neighbor list info ...
  update every 20 steps, delay 0 steps, check no
  max neighbors/atom: 2000, page size: 100000
  master list distance cutoff = 2.8
  ghost atom cutoff = 2.8
  binsize = 1.4, bins = 17 17 17
  1 neighbor lists, perpetual/occasional/extra = 1 0 0
  (1) pair lj/cut, perpetual
      attributes: half, newton on
      pair build: half/bin/atomonly/newton
      stencil: half/bin/3d
      bin: standard
Setting up Verlet run ...
  Unit style    : lj
  Current step  : 0
  Time step     : 0.005
Per MPI rank memory allocation (min/avg/max) = 2.599 | 2.599 | 2.599 Mbytes
   Step          Temp          Press          PotEng         KinEng         TotEng         Volume    
         0   1.5            0.035308173   -2.3642772      2.2412109     -0.12306624     11585.238    
      1000   0.95497032     0.0075496439  -1.459028       1.42686       -0.032168039    11585.238    
      2000   0.8686393      0.015473579   -1.3211639      1.2978693     -0.023294681    11585.238    
      3000   0.81131021     0.0097071361  -1.2299209      1.2122115     -0.01770938     11585.238    
      4000   0.80955188     0.0095731632  -1.2213482      1.2095844     -0.011763819    11585.238    
      5000   0.77690254     0.010309362   -1.174278       1.1608017     -0.013476305    11585.238    
      6000   0.78653645     0.0052774187  -1.1878071      1.1751961     -0.012611013    11585.238    
      7000   0.77341086     0.01386224    -1.1681292      1.1555846     -0.012544645    11585.238    
      8000   0.78240323     0.010987677   -1.182054       1.1690205     -0.013033538    11585.238    
      9000   0.76718272     0.013427937   -1.1635793      1.1462789     -0.017300433    11585.238    
     10000   0.75626865     0.0121306     -1.1483254      1.1299717     -0.01835368     11585.238    
     11000   0.73561542     0.0088437587  -1.1121235      1.0991129     -0.013010612    11585.238    
     12000   0.7349951      0.01005111    -1.1111601      1.098186      -0.012974019    11585.238    
     13000   0.73208997     0.013879177   -1.1073285      1.0938454     -0.013483117    11585.238    
     14000   0.76584047     0.0069402797  -1.1602492      1.1442734     -0.015975884    11585.238    
     15000   0.75422249     0.012389226   -1.1400076      1.1269145     -0.013093174    11585.238    
     16000   0.70770477     0.0064307523  -1.064917       1.0574104     -0.0075065974   11585.238    
     17000   0.71813282     0.0094369187  -1.083288       1.0729914     -0.010296596    11585.238    
     18000   0.69242369     0.013578166   -1.0415561      1.0345784     -0.0069776942   11585.238    
     19000   0.72226016     0.0091360267  -1.0885059      1.0791582     -0.0093476581   11585.238    
     20000   0.70131913     0.013639826   -1.0575599      1.0478694     -0.0096905236   11585.238    
     21000   0.70651285     0.0069728646  -1.0609795      1.0556295     -0.0053499409   11585.238    
     22000   0.71975518     0.011339699   -1.086003       1.0754155     -0.010587572    11585.238    
     23000   0.72807241     0.0071345511  -1.1005126      1.0878426     -0.012670085    11585.238    
     24000   0.70421889     0.00970988    -1.0595203      1.0522021     -0.0073182187   11585.238    
     25000   0.72929579     0.0099631591  -1.0987092      1.0896705     -0.0090387311   11585.238    
     26000   0.75310816     0.011540068   -1.1354221      1.1252495     -0.010172612    11585.238    
     27000   0.6815315      0.0093780634  -1.0246512      1.0183039     -0.00634733     11585.238    
     28000   0.67317145     0.0062998127  -1.0105695      1.0058128     -0.004756723    11585.238    
     29000   0.65134917     0.0099920382  -0.9740554      0.97320726    -0.00084814806  11585.238    
     30000   0.68490636     0.0077809149  -1.0277277      1.0233464     -0.004381309    11585.238    
     31000   0.70300346     0.0064664549  -1.0545338      1.050386      -0.0041477674   11585.238    
     32000   0.67743086     0.0092499907  -1.0157927      1.012177      -0.0036157422   11585.238    
     33000   0.70201189     0.0085740668  -1.0559222      1.0489045     -0.0070177423   11585.238    
     34000   0.71111343     0.015679547   -1.0716311      1.0625035     -0.0091276289   11585.238    
     35000   0.6892611      0.0093823036  -1.0341916      1.029853      -0.0043386142   11585.238    
     36000   0.6690964      0.0107592     -1.0032847      0.99972411    -0.003560592    11585.238    
     37000   0.65485265     0.0078458912  -0.98477863     0.97844195    -0.0063366845   11585.238    
     38000   0.682028       0.0071821971  -1.0269823      1.0190457     -0.0079365553   11585.238    
     39000   0.68190936     0.0092172632  -1.024226       1.0188685     -0.0053574749   11585.238    
     40000   0.68443323     0.010661638   -1.0311431      1.0226395     -0.0085035628   11585.238    
     41000   0.70625079     0.0083403769  -1.0645719      1.055238      -0.0093339157   11585.238    
     42000   0.71298209     0.010751098   -1.0732363      1.0652955     -0.0079407893   11585.238    
     43000   0.68592551     0.006138869   -1.0306052      1.0248692     -0.0057360262   11585.238    
     44000   0.67925203     0.010989879   -1.0197412      1.0148981     -0.0048431379   11585.238    
     45000   0.70187121     0.0038628766  -1.0557053      1.0486943     -0.0070110122   11585.238    
     46000   0.6793639      0.012773952   -1.0205396      1.0150652     -0.0054743867   11585.238    
     47000   0.72016397     0.0073250814  -1.0875737      1.0760262     -0.011547459    11585.238    
     48000   0.68164845     0.0061796368  -1.0282754      1.0184786     -0.0097967706   11585.238    
     49000   0.7178791      0.012876381   -1.0849893      1.0726123     -0.012376941    11585.238    
     50000   0.70439329     0.012180226   -1.0631586      1.0524626     -0.01069594     11585.238    
     51000   0.71530622     0.0063555211  -1.0794479      1.0687681     -0.010679839    11585.238    
     52000   0.73276117     0.011800118   -1.1068834      1.0948482     -0.012035124    11585.238    
     53000   0.6952197      0.0024250489  -1.0435891      1.038756      -0.0048330545   11585.238    
     54000   0.73547908     0.0049305776  -1.1102211      1.0989092     -0.011311883    11585.238    
     55000   0.64678448     0.012973563   -0.97296124     0.96638696    -0.0065742765   11585.238    
     56000   0.66303861     0.0093636856  -0.99861264     0.99067293    -0.0079397154   11585.238    
     57000   0.73355129     0.0089425301  -1.1080029      1.0960288     -0.011974153    11585.238    
     58000   0.68562682     0.010282012   -1.0298832      1.0244229     -0.0054603087   11585.238    
     59000   0.68331648     0.010806124   -1.0245991      1.0209709     -0.0036282296   11585.238    
     60000   0.70368736     0.0069161602  -1.0591974      1.0514079     -0.007789529    11585.238    
     61000   0.71963426     0.010148484   -1.0878393      1.0752348     -0.012604516    11585.238    
     62000   0.71469082     0.0077051158  -1.0783259      1.0678486     -0.010477305    11585.238    
     63000   0.67723052     0.0095958851  -1.0169067      1.0118776     -0.0050290517   11585.238    
     64000   0.66241378     0.006781308   -0.9950065      0.98973934    -0.0052671589   11585.238    
     65000   0.65688486     0.013858482   -0.9875655      0.98147835    -0.0060871425   11585.238    
     66000   0.67861401     0.0047653092  -1.0175525      1.0139448     -0.0036077104   11585.238    
     67000   0.7016018      0.0078749177  -1.0560022      1.0482917     -0.0077104687   11585.238    
     68000   0.63885118     0.0071502958  -0.96003482     0.9545335     -0.0055013275   11585.238    
     69000   0.65475346     0.012613803   -0.98103328     0.97829375    -0.0027395255   11585.238    
     70000   0.64557467     0.0085503175  -0.96575161     0.96457935    -0.0011722628   11585.238    
     71000   0.64681025     0.0068975813  -0.96655913     0.96642548    -0.00013365314  11585.238    
     72000   0.65575585     0.0062804841  -0.98098678     0.97979146    -0.0011953188   11585.238    
     73000   0.65861324     0.0090095799  -0.98548649     0.9840608     -0.0014256878   11585.238    
     74000   0.64525573     0.0070234881  -0.96720302     0.9641028     -0.0031002244   11585.238    
     75000   0.6836729      0.009993722   -1.0247694      1.0215034     -0.0032659879   11585.238    
     76000   0.66467263     0.0074751204  -0.99676093     0.99311437    -0.0036465604   11585.238    
     77000   0.67137134     0.010550366   -1.0090344      1.0031232     -0.0059111866   11585.238    
     78000   0.65352441    -5.7127633e-05 -0.97882975     0.97645737    -0.0023723714   11585.238    
     79000   0.66279673     0.0091519911  -0.99401441     0.99031151    -0.0037028971   11585.238    
     80000   0.68313491     0.0074725498  -1.0262474      1.0206996     -0.0055478038   11585.238    
     81000   0.69865988     0.0071131771  -1.0522495      1.0438961     -0.008353406    11585.238    
     82000   0.66787072     0.0050939593  -1.0013731      0.99789277    -0.0034803527   11585.238    
     83000   0.66782669     0.0066240785  -1.0054149      0.99782699    -0.0075879509   11585.238    
     84000   0.68975735     0.0085780166  -1.0342749      1.0305945     -0.0036804363   11585.238    
     85000   0.67288083     0.012289215   -1.0094249      1.0053786     -0.0040463702   11585.238    
     86000   0.65476688     0.0077220672  -0.98105582     0.97831379    -0.0027420268   11585.238    
     87000   0.67111337     0.007615003   -1.0070876      1.0027377     -0.0043498996   11585.238    
     88000   0.68162204     0.007737823   -1.0239692      1.0184392     -0.0055300661   11585.238    
     89000   0.69208712     0.00814538    -1.0406943      1.0340755     -0.0066187922   11585.238    
     90000   0.69427442     0.0062513132  -1.0447908      1.0373436     -0.007447152    11585.238    
     91000   0.6902937      0.011458696   -1.0418034      1.0313959     -0.010407553    11585.238    
     92000   0.70797064     0.0072126286  -1.0672292      1.0578077     -0.0094215235   11585.238    
     93000   0.69272892     0.0094945044  -1.0463764      1.0350344     -0.011341942    11585.238    
     94000   0.69721027     0.013163247   -1.0508636      1.0417302     -0.0091334148   11585.238    
     95000   0.75052973     0.013145653   -1.1357675      1.121397      -0.014370542    11585.238    
     96000   0.71754657     0.011237925   -1.079761       1.0721155     -0.007645484    11585.238    
     97000   0.68649699     0.011937127   -1.03371        1.025723      -0.0079869192   11585.238    
     98000   0.74938034     0.0072207405  -1.1331132      1.1196796     -0.013433626    11585.238    
     99000   0.6908536      0.016085658   -1.046638       1.0322324     -0.014405576    11585.238    
    100000   0.73494363     0.01176284    -1.1098781      1.0981091     -0.011768991    11585.238    
    101000   0.6548888      0.0095859676  -0.98457721     0.97849596    -0.0060812459   11585.238    
    102000   0.72618246     0.011590599   -1.0969486      1.0850187     -0.011929906    11585.238    
    103000   0.67807613     0.005855824   -1.0171348      1.0131411     -0.003993676    11585.238    
    104000   0.71127205     0.012747481   -1.0738397      1.0627405     -0.01109921     11585.238    
    105000   0.69841147     0.0046589616  -1.0522103      1.0435249     -0.008685323    11585.238    
    106000   0.67531592     0.0098408488  -1.0159491      1.009017      -0.0069321387   11585.238    
    107000   0.69641234     0.0053960243  -1.0444184      1.040538      -0.0038803887   11585.238    
    108000   0.68705024     0.0085500533  -1.0342312      1.0265497     -0.0076815329   11585.238    
    109000   0.72195953     0.0097224337  -1.0873684      1.0787091     -0.0086593701   11585.238    
    110000   0.69713397     0.010523922   -1.0514821      1.0416162     -0.0098658756   11585.238    
    111000   0.67331007     0.014304736   -1.0119324      1.0060199     -0.0059125188   11585.238    
    112000   0.77750217     0.012211998   -1.1749223      1.1616976     -0.013224712    11585.238    
    113000   0.70627854     0.0066345782  -1.0642765      1.0552795     -0.0089970687   11585.238    
    114000   0.72516747     0.012428671   -1.0958631      1.0835022     -0.012360952    11585.238    
    115000   0.72179103     0.0099101731  -1.0900613      1.0784573     -0.011603954    11585.238    
    116000   0.74879641     0.013083062   -1.1333283      1.1188071     -0.014521179    11585.238    
    117000   0.70924317     0.011616765   -1.0689591      1.059709      -0.0092500186   11585.238    
    118000   0.70680342     0.0066185129  -1.0694967      1.0560637     -0.013432973    11585.238    
    119000   0.69795845     0.01958131    -1.0579401      1.0428481     -0.015092041    11585.238    
    120000   0.70159549     0.0098768193  -1.0562442      1.0482823     -0.0079618939   11585.238    
    121000   0.68760404     0.014373399   -1.0370062      1.0273771     -0.0096291128   11585.238    
    122000   0.70928879     0.014885744   -1.0712486      1.0597772     -0.01147142     11585.238    
    123000   0.72009937     0.010155564   -1.086423       1.0759297     -0.010493245    11585.238    
    124000   0.67551135     0.011543895   -1.0191903      1.009309      -0.0098813437   11585.238    
    125000   0.72590663     0.0037090462  -1.0962292      1.0846066     -0.011622641    11585.238    
    126000   0.67172853     0.0033138806  -1.0113636      1.0036569     -0.0077067179   11585.238    
    127000   0.6805408      0.0016628817  -1.0221214      1.0168237     -0.005297741    11585.238    
    128000   0.66230761     0.014123956   -0.99630128     0.9895807     -0.0067205817   11585.238    
    129000   0.72582202     0.01265412    -1.0983177      1.0844802     -0.01383757     11585.238    
    130000   0.67831439     0.0038664917  -1.0178134      1.0134971     -0.0043163095   11585.238    
    131000   0.71200383     0.009003406   -1.0777718      1.0638339     -0.013937991    11585.238    
    132000   0.71359527     0.0046590016  -1.0773751      1.0662117     -0.011163446    11585.238    
    133000   0.70775232     0.002016976   -1.0632432      1.0574815     -0.0057616636   11585.238    
    134000   0.71270755     0.011152222   -1.0787879      1.0648853     -0.013902563    11585.238    
    135000   0.72381443     0.015349352   -1.0970659      1.0814806     -0.015585399    11585.238    
    136000   0.71634407     0.0082613545  -1.0827653      1.0703188     -0.012446516    11585.238    
    137000   0.7155291      0.0084568276  -1.0806267      1.0691011     -0.011525645    11585.238    
    138000   0.70052645     0.0085624241  -1.0587785      1.046685      -0.012093439    11585.238    
    139000   0.68298961     0.015532488   -1.0339765      1.0204825     -0.013493934    11585.238    
    140000   0.7066993      0.0053694408  -1.0716307      1.0559081     -0.015722583    11585.238    
    141000   0.76185736     0.0071347477  -1.155782       1.138322      -0.017459977    11585.238    
    142000   0.71175552     0.012944852   -1.0776821      1.0634628     -0.014219259    11585.238    
    143000   0.71681988     0.011370436   -1.083135       1.0710297     -0.012105287    11585.238    
    144000   0.69171536     0.0058441296  -1.0422488      1.03352       -0.0087287793   11585.238    
    145000   0.69306715     0.013135595   -1.0463487      1.0355398     -0.010808958    11585.238    
    146000   0.67804242     0.010674703   -1.020783       1.0130907     -0.0076922344   11585.238    
    147000   0.74011509     0.012361647   -1.1173806      1.105836      -0.011544603    11585.238    
    148000   0.66998406     0.012773894   -1.0075405      1.0010504     -0.0064901353   11585.238    
    149000   0.67464163     0.0062134593  -1.0145579      1.0080095     -0.0065484208   11585.238    
    150000   0.650781       0.0080071367  -0.97877757     0.97235834    -0.0064192356   11585.238    
    151000   0.62255499     0.0083715173  -0.93545219     0.93018471    -0.0052674766   11585.238    
    152000   0.65168864     0.013176494   -0.98167857     0.97371448    -0.0079640916   11585.238    
    153000   0.65005186     0.0055815833  -0.97637352     0.9712689     -0.0051046275   11585.238    
    154000   0.66357461     0.012860636   -0.99863011     0.99147378    -0.007156331    11585.238    
    155000   0.70545831     0.0049193119  -1.0608666      1.0540539     -0.0068126421   11585.238    
    156000   0.68813015     0.0057421071  -1.0366554      1.0281632     -0.0084922289   11585.238    
    157000   0.69001602     0.010145371   -1.0403905      1.030981      -0.0094095561   11585.238    
    158000   0.67347901     0.0019805435  -1.0158217      1.0062723     -0.0095493776   11585.238    
    159000   0.66870554     0.0096651064  -1.0050614      0.99914011    -0.0059213319   11585.238    
    160000   0.64557574     0.016210193   -0.97097451     0.96458095    -0.0063935643   11585.238    
    161000   0.65939679     0.010133466   -0.99089368     0.98523153    -0.005662155    11585.238    
    162000   0.65864875     0.012469662   -0.98832441     0.98411386    -0.0042105484   11585.238    
    163000   0.66149915     0.013820079   -0.99504538     0.98837275    -0.0066726294   11585.238    
    164000   0.63100131     0.0055839016  -0.94609788     0.94280468    -0.0032931997   11585.238    
    165000   0.6505989      0.0076026223  -0.97690321     0.97208625    -0.0048169581   11585.238    
    166000   0.60495673     0.0064976958  -0.9026064      0.90389043     0.0012840257   11585.238    
    167000   0.60982964     0.0066274361  -0.90925602     0.91117125     0.0019152253   11585.238    
    168000   0.6173365      0.0064253523  -0.92370947     0.92238754    -0.0013219275   11585.238    
    169000   0.5907568      0.0026707631  -0.88298507     0.88267373    -0.00031133657  11585.238    
    170000   0.64439479     0.0066717402  -0.96984892     0.96281643    -0.007032489    11585.238    
    171000   0.62929025     0.0096343209  -0.94497977     0.94024812    -0.0047316522   11585.238    
    172000   0.64781665     0.0068530142  -0.96718899     0.96792917     0.00074017552  11585.238    
    173000   0.68550829     0.0059295563  -1.0294154      1.0242458     -0.005169639    11585.238    
    174000   0.65202611     0.0066285241  -0.98192564     0.9742187     -0.0077069391   11585.238    
    175000   0.69212407     0.0060694693  -1.0423765      1.0341307     -0.0082458578   11585.238    
    176000   0.62207072     0.0074571965  -0.9307523      0.92946114    -0.0012911678   11585.238    
    177000   0.70229251     0.012698038   -1.0595581      1.0493238     -0.010234378    11585.238    
    178000   0.6355538      0.009391943   -0.95182486     0.94960676    -0.0022181007   11585.238    
    179000   0.67767566     0.0060615734  -1.0192964      1.0125427     -0.0067536683   11585.238    
    180000   0.65828051     0.0038710442  -0.9891331      0.98356366    -0.0055694448   11585.238    
    181000   0.64827729     0.019194707   -0.97580819     0.96861743    -0.0071907618   11585.238    
    182000   0.62909983     0.0089948394  -0.94549652     0.93996362    -0.0055329045   11585.238    
    183000   0.65104138     0.0077123932  -0.97787933     0.97274738    -0.0051319502   11585.238    
    184000   0.69450309     0.011413346   -1.047979       1.0376853     -0.010293749    11585.238    
    185000   0.69149084     0.010191472   -1.0401866      1.0331846     -0.0070020312   11585.238    
    186000   0.65377314     0.0097276768  -0.98344468     0.97682901    -0.0066156721   11585.238    
    187000   0.68459413     0.0086294328  -1.0317815      1.0228799     -0.0089015586   11585.238    
    188000   0.65165306     0.0097505984  -0.97761123     0.97366132    -0.0039499132   11585.238    
    189000   0.64929946     0.012813449   -0.97513915     0.97014471    -0.0049944404   11585.238    
    190000   0.68551243     0.013760469   -1.034645       1.024252      -0.010393062    11585.238    
    191000   0.66275635     0.010880544   -0.99827066     0.99025118    -0.008019476    11585.238    
    192000   0.68267892     0.0060622416  -1.0326521      1.0200183     -0.012633816    11585.238    
    193000   0.67030927     0.0067753563  -1.0112309      1.0015363     -0.0096945931   11585.238    
    194000   0.68010892     0.0025365356  -1.0231739      1.0161784     -0.0069955118   11585.238    
    195000   0.64516004     0.0065017515  -0.96870639     0.96395983    -0.0047465566   11585.238    
    196000   0.6101853      0.0064834035  -0.91404442     0.91170265    -0.0023417654   11585.238    
    197000   0.65718054     0.0084168434  -0.98543821     0.98192014    -0.0035180728   11585.238    
    198000   0.60374268     0.0052372543  -0.89991397     0.90207647     0.0021625053   11585.238    
    199000   0.60724121     0.0094473572  -0.90602069     0.90730377     0.0012830804   11585.238    
    200000   0.62872944     0.009102409   -0.94417709     0.9394102     -0.004766884    11585.238    
    201000   0.61623877     0.008723359   -0.92051152     0.92074738     0.0002358592   11585.238    
    202000   0.6284052      0.0064089822  -0.9390939      0.93892574    -0.00016816351  11585.238    
    203000   0.66199929     0.0092521331  -0.9946139      0.98912003    -0.0054938635   11585.238    
    204000   0.65948953     0.0064965598  -0.98902395     0.9853701     -0.0036538514   11585.238    
    205000   0.63906089     0.008847234   -0.95718918     0.95484684    -0.0023423321   11585.238    
    206000   0.65576789     0.0064104864  -0.98309612     0.97980944    -0.0032866762   11585.238    
    207000   0.58669819     0.0069349935  -0.87590749     0.8766096      0.00070210798  11585.238    
    208000   0.62349889     0.0067906173  -0.93121667     0.93159502     0.00037835183  11585.238    
    209000   0.7136369      0.01307552    -1.0799846      1.0662739     -0.013710703    11585.238    
    210000   0.67032686     0.0098103849  -1.0066652      1.0015626     -0.0051025875   11585.238    
    211000   0.66295711     0.0088031168  -0.99703885     0.99055114    -0.0064877096   11585.238    
    212000   0.64079997     0.0042153897  -0.96095875     0.95744527    -0.0035134742   11585.238    
    213000   0.63658181     0.0024491896  -0.95477659     0.95114274    -0.0036338535   11585.238    
    214000   0.64286691     0.0086650104  -0.96210254     0.96053357    -0.0015689722   11585.238    
    215000   0.65067433     0.007631271   -0.97976337     0.97219895    -0.0075644202   11585.238    
    216000   0.67923946     0.01122459    -1.0248443      1.0148793     -0.0099649828   11585.238    
    217000   0.64330962     0.0035172562  -0.96610735     0.96119503    -0.0049123141   11585.238    
    218000   0.66811074     0.0068076181  -1.0041436      0.9982514     -0.0058922144   11585.238    
    219000   0.66618915     0.0091907722  -1.002938       0.99538027    -0.0075577627   11585.238    
    220000   0.64242723     0.0067196736  -0.96680514     0.95987662    -0.0069285242   11585.238    
    221000   0.6667708      0.012828747   -1.0020129      0.99624933    -0.005763526    11585.238    
    222000   0.65425282     0.011160866   -0.98102457     0.97754571    -0.0034788563   11585.238    
    223000   0.65728534     0.010692856   -0.98648338     0.98207673    -0.0044066464   11585.238    
    224000   0.64863813     0.0079478368  -0.97406871     0.96915659    -0.0049121184   11585.238    
    225000   0.61781683     0.011771239   -0.92685787     0.92310522    -0.0037526472   11585.238    
    226000   0.64927055     0.011129227   -0.97471822     0.97010151    -0.0046167098   11585.238    
    227000   0.65317893     0.008019622   -0.9796419      0.97594117    -0.0037007284   11585.238    
    228000   0.6637522      0.010386039   -0.99910512     0.99173913    -0.0073659955   11585.238    
    229000   0.64496769     0.01162824    -0.9671885      0.96367242    -0.0035160715   11585.238    
    230000   0.63890168     0.011363343   -0.95827188     0.95460895    -0.0036629323   11585.238    
    231000   0.65738218     0.010229393   -0.98794583     0.98222143    -0.0057243999   11585.238    
    232000   0.65437969     0.0074045995  -0.98215279     0.97773527    -0.0044175123   11585.238    
    233000   0.65384506     0.0053110624  -0.98522119     0.97693647    -0.0082847183   11585.238    
    234000   0.63094321     0.0060378036  -0.94851283     0.94271788    -0.0057949462   11585.238    
    235000   0.64294622     0.0060918551  -0.96535671     0.96065207    -0.0047046396   11585.238    
    236000   0.65211151     0.011573216   -0.98439295     0.97434629    -0.010046657    11585.238    
    237000   0.67315735     0.010153667   -1.0164602      1.0057917     -0.010668405    11585.238    
    238000   0.6816845      0.006214191   -1.0290516      1.0185325     -0.010519101    11585.238    
    239000   0.70935308     0.0110797     -1.0731621      1.0598733     -0.013288818    11585.238    
    240000   0.72485327     0.012732993   -1.1043053      1.0830327     -0.021272547    11585.238    
    241000   0.71267391     0.010244467   -1.0798577      1.064835      -0.015022691    11585.238    
    242000   0.68503428     0.0047375352  -1.0344476      1.0235376     -0.010910042    11585.238    
    243000   0.69822308     0.011563999   -1.05735        1.0432435     -0.014106547    11585.238    
    244000   0.77511463     0.0041479763  -1.1758018      1.1581303     -0.017671494    11585.238    
    245000   0.71352092     0.0078955021  -1.0799795      1.0661006     -0.013878922    11585.238    
    246000   0.67813879     0.0067548991  -1.0249244      1.0132347     -0.011689708    11585.238    
    247000   0.71431648     0.0056551587  -1.0810643      1.0672893     -0.013774974    11585.238    
    248000   0.71077387     0.010651627   -1.0749444      1.0619961     -0.012948237    11585.238    
    249000   0.68096291     0.011086121   -1.0303278      1.0174543     -0.012873474    11585.238    
    250000   0.6813297      0.0084798461  -1.0263721      1.0180024     -0.008369693    11585.238    
    251000   0.64106605     0.0068469232  -0.96678206     0.95784282    -0.0089392357   11585.238    
    252000   0.71082183     0.0063935616  -1.0756747      1.0620678     -0.01360697     11585.238    
    253000   0.67851508     0.0085915068  -1.0258672      1.0137969     -0.012070216    11585.238    
    254000   0.65284288     0.0070312284  -0.98472896     0.97543907    -0.0092898985   11585.238    
    255000   0.68387156     0.0098204285  -1.0322268      1.0218003     -0.010426533    11585.238    
    256000   0.68776163     0.0083267391  -1.0406981      1.0276126     -0.013085521    11585.238    
    257000   0.68318286     0.0098348687  -1.0312167      1.0207713     -0.0104454      11585.238    
    258000   0.68041467     0.0072342617  -1.0248122      1.0166352     -0.0081769753   11585.238    
    259000   0.6503565      0.0069412621  -0.97824968     0.97172407    -0.006525607    11585.238    
    260000   0.64670233     0.011500686   -0.97126258     0.96626423    -0.0049983488   11585.238    
    261000   0.66650702     0.0050805163  -1.0020507      0.99585521    -0.0061954993   11585.238    
    262000   0.6640671      0.0086800328  -0.99980123     0.99220963    -0.0075916006   11585.238    
    263000   0.64679884     0.010566682   -0.97456464     0.96640842    -0.0081562176   11585.238    
    264000   0.66629192     0.01074977    -1.0048376      0.99553383    -0.0093037283   11585.238    
    265000   0.66052306     0.0085749104  -0.9943115      0.98691434    -0.0073971618   11585.238    
    266000   0.62684685     0.0037913123  -0.9409261      0.93659735    -0.0043287541   11585.238    
    267000   0.62608358     0.0095122465  -0.94225957     0.93545691    -0.0068026591   11585.238    
    268000   0.64481044     0.004999226   -0.97250431     0.96343748    -0.0090668304   11585.238    
    269000   0.65893396     0.0055395109  -0.99007399     0.98453999    -0.005533991    11585.238    
    270000   0.6904007      0.011589174   -1.0408851      1.0315557     -0.0093294183   11585.238    
    271000   0.65778706     0.010274129   -0.99052314     0.98282637    -0.0076967758   11585.238    
    272000   0.67857306     0.0082388817  -1.0201904      1.0138836     -0.0063068555   11585.238    
    273000   0.68643942     0.014680258   -1.0372272      1.025637      -0.011590181    11585.238    
    274000   0.69770408     0.0051164703  -1.0527922      1.042468      -0.010324232    11585.238    
    275000   0.66326112     0.012894755   -1.0027177      0.99100539    -0.01171232     11585.238    
    276000   0.69909203     0.0099862026  -1.057496       1.0445418     -0.012954204    11585.238    
    277000   0.64481109     0.0068664204  -0.97084341     0.96343845    -0.0074049622   11585.238    
    278000   0.654556       0.0074102777  -0.98678629     0.97799872    -0.0087875769   11585.238    
    279000   0.66601406     0.0089775436  -1.0036762      0.99511866    -0.0085575169   11585.238    
    280000   0.64209561     0.0068446086  -0.96711772     0.95938114    -0.0077365837   11585.238    
    281000   0.67576386     0.011879819   -1.0188106      1.0096862     -0.0091243598   11585.238    
    282000   0.69884111     0.013143302   -1.0565098      1.0441669     -0.012342864    11585.238    
    283000   0.66951372     0.0056016031  -1.0080909      1.0003476     -0.0077432214   11585.238    
    284000   0.65754849     0.0085872895  -0.99004673     0.98246991    -0.0075768207   11585.238    
    285000   0.66916247     0.012880684   -1.010043       0.99982283    -0.010220171    11585.238    
    286000   0.71212153     0.016687051   -1.0771265      1.0640097     -0.013116787    11585.238    
    287000   0.67851423     0.011048872   -1.0268263      1.0137957     -0.013030604    11585.238    
    288000   0.67240235     0.0058007493  -1.0133877      1.0046637     -0.0087240029   11585.238    
    289000   0.6695988      0.0052057617  -1.0106992      1.0004748     -0.010224454    11585.238    
    290000   0.70180179     0.0069250479  -1.0607663      1.0485906     -0.012175701    11585.238    
    291000   0.67419385     0.0075256248  -1.0180525      1.0073404     -0.010712106    11585.238    
    292000   0.69159927     0.006477452   -1.0443568      1.0333466     -0.011010239    11585.238    
    293000   0.7267736      0.008937619   -1.0987022      1.085902      -0.012800257    11585.238    
    294000   0.74567489     0.0062856742  -1.1298239      1.1141432     -0.015680759    11585.238    
    295000   0.71524524     0.0086107283  -1.0833654      1.068677      -0.014688456    11585.238    
    296000   0.68820541     0.0047030541  -1.0415972      1.0282757     -0.013321578    11585.238    
    297000   0.68807039     0.0084694987  -1.0376051      1.0280739     -0.0095311876   11585.238    
    298000   0.69427023     0.0066848911  -1.0508838      1.0373373     -0.013546485    11585.238    
    299000   0.6745195      0.012233604   -1.0187048      1.007827      -0.010877758    11585.238    
    300000   0.69158808     0.011497435   -1.0476144      1.0333298     -0.014284521    11585.238    
    301000   0.7363159      0.014670125   -1.1153111      1.1001595     -0.015151589    11585.238    
    302000   0.66402792     0.0082674435  -1.0012439      0.99215108    -0.0090928492   11585.238    
    303000   0.69599724     0.0087457977  -1.0520252      1.0399178     -0.012107478    11585.238    
    304000   0.68698535     0.012429461   -1.0391282      1.0264527     -0.012675448    11585.238    
    305000   0.65934619     0.006982428   -0.99355667     0.98515593    -0.0084007364   11585.238    
    306000   0.71085954     0.013056478   -1.0777165      1.0621241     -0.01559241     11585.238    
    307000   0.69883849     0.0098617514  -1.0577679      1.044163      -0.013604873    11585.238    
    308000   0.69163485     0.0067121127  -1.0453412      1.0333997     -0.01194144     11585.238    
    309000   0.66952362     0.012217556   -1.0109711      1.0003624     -0.010608707    11585.238    
    310000   0.69723636     0.013310438   -1.0555234      1.0417692     -0.013754174    11585.238    
    311000   0.67587473     0.0064298828  -1.0211722      1.0098519     -0.01132034     11585.238    
    312000   0.70682697     0.01382465    -1.0705564      1.0560989     -0.014457501    11585.238    
    313000   0.70695621     0.0069931565  -1.0681673      1.056292      -0.011875353    11585.238    
    314000   0.72284491     0.008410494   -1.0917936      1.0800319     -0.011761644    11585.238    
    315000   0.72621872     0.010697688   -1.100585       1.0850729     -0.015512147    11585.238    
    316000   0.69872417     0.013996604   -1.0572294      1.0439922     -0.013237218    11585.238    
    317000   0.6882641      0.01648903    -1.042524       1.0283633     -0.014160608    11585.238    
    318000   0.71040464     0.0067721922  -1.0747958      1.0614444     -0.013351413    11585.238    
    319000   0.73341117     0.0069044094  -1.1135595      1.0958194     -0.017740091    11585.238    
    320000   0.68029272     0.0075075566  -1.0295901      1.016453      -0.013137085    11585.238    
    321000   0.69300078     0.0094604695  -1.0492602      1.0354406     -0.013819597    11585.238    
    322000   0.68845555     0.012348598   -1.0424922      1.0286494     -0.013842834    11585.238    
    323000   0.67371447     0.01229293    -1.0198439      1.0066242     -0.013219751    11585.238    
    324000   0.71559725     0.0086759811  -1.0868214      1.0692029     -0.017618459    11585.238    
    325000   0.68406688     0.0083903792  -1.0348955      1.0220921     -0.012803364    11585.238    
    326000   0.75199694     0.0078086594  -1.1429411      1.1235892     -0.019351883    11585.238    
    327000   0.71927921     0.0099298662  -1.0904065      1.0747043     -0.01570218     11585.238    
    328000   0.73656782     0.0088391007  -1.1155578      1.1005359     -0.015021916    11585.238    
    329000   0.7194121      0.011431973   -1.0897666      1.0749028     -0.014863721    11585.238    
    330000   0.72048257     0.0089166564  -1.0941483      1.0765023     -0.017646073    11585.238    
    331000   0.73346751     0.010551755   -1.1161496      1.0959036     -0.020246032    11585.238    
    332000   0.74333909     0.011282965   -1.1280944      1.1106531     -0.017441307    11585.238    
    333000   0.70309306     0.0060799639  -1.0651782      1.0505199     -0.014658328    11585.238    
    334000   0.72207354     0.0042247042  -1.0957208      1.0788794     -0.016841388    11585.238    
    335000   0.72041468     0.012510459   -1.0936823      1.0764008     -0.017281475    11585.238    
    336000   0.73635665     0.0094123326  -1.1184093      1.1002204     -0.018188961    11585.238    
    337000   0.7029082      0.0035114734  -1.0639045      1.0502437     -0.013660795    11585.238    
    338000   0.68637349     0.0085261551  -1.0369026      1.0255385     -0.011364049    11585.238    
    339000   0.71469502     0.011535238   -1.0855623      1.0678549     -0.017707418    11585.238    
    340000   0.70759612     0.0066734775  -1.0753172      1.0572481     -0.018069091    11585.238    
    341000   0.71713273     0.010839179   -1.0922013      1.0714971     -0.020704119    11585.238    
    342000   0.70189497     0.012174622   -1.0656922      1.0487298     -0.016962433    11585.238    
    343000   0.71641697     0.015250117   -1.0858418      1.0704277     -0.015414135    11585.238    
    344000   0.67565364     0.010985842   -1.0246784      1.0095216     -0.015156793    11585.238    
    345000   0.698127       0.0057969687  -1.0588944      1.0430999     -0.015794459    11585.238    
    346000   0.75197593     0.0092085429  -1.1425851      1.1235578     -0.019027283    11585.238    
    347000   0.71027623     0.014431877   -1.0756909      1.0612526     -0.014438364    11585.238    
    348000   0.69869317     0.011537072   -1.059089       1.0439459     -0.015143127    11585.238    
    349000   0.68039341     0.012073676   -1.026816       1.0166034     -0.010212553    11585.238    
    350000   0.67888336     0.0144834     -1.0246991      1.0143472     -0.010351855    11585.238    
    351000   0.65497617     0.009972206   -0.9866685      0.97862651    -0.0080419911   11585.238    
    352000   0.64375027     0.0089859738  -0.96715405     0.96185342    -0.0053006211   11585.238    
    353000   0.65679631     0.004576231   -0.9892744      0.98134605    -0.0079283562   11585.238    
    354000   0.64425722     0.0085080745  -0.97088253     0.96261088    -0.0082716516   11585.238    
    355000   0.6649936      0.0091978765  -1.0046604      0.99359396    -0.011066411    11585.238    
    356000   0.63076599     0.0068724501  -0.94982741     0.94245309    -0.0073743244   11585.238    
    357000   0.64228768     0.010776414   -0.97151883     0.95966812    -0.011850707    11585.238    
    358000   0.65950171     0.010621546   -0.99531666     0.9853883     -0.0099283633   11585.238    
    359000   0.65586276     0.0089843291  -0.98709503     0.9799512     -0.0071438295   11585.238    
    360000   0.65879421     0.013756864   -0.996415       0.9843312     -0.012083802    11585.238    
    361000   0.61585641     0.0070040068  -0.92548104     0.92017608    -0.0053049604   11585.238    
    362000   0.63297675     0.012742161   -0.95686616     0.94575628    -0.011109884    11585.238    
    363000   0.63004429     0.008588677   -0.94890114     0.94137477    -0.00752637     11585.238    
    364000   0.62008738     0.0034248084  -0.93433215     0.92649774    -0.0078344121   11585.238    
    365000   0.65768215     0.0094674937  -0.9948568      0.98266962    -0.012187184    11585.238    
    366000   0.64001398     0.0081095018  -0.96345723     0.95627089    -0.0071863348   11585.238    
    367000   0.65139628     0.0066122678  -0.98210573     0.97327765    -0.0088280772   11585.238    
    368000   0.64678629     0.010613516   -0.97411308     0.96638968    -0.0077234055   11585.238    
    369000   0.65452981     0.012135245   -0.98723606     0.97795958    -0.0092764738   11585.238    
    370000   0.64983606     0.0077103174  -0.98000805     0.97094646    -0.0090615834   11585.238    
    371000   0.64144006     0.013810018   -0.96929927     0.95840166    -0.010897612    11585.238    
    372000   0.65055171     0.0053723996  -0.97830524     0.97201574    -0.0062894998   11585.238    
    373000   0.63045098     0.0049461761  -0.94976123     0.94198243    -0.0077788034   11585.238    
    374000   0.66207263     0.0052960423  -0.99986263     0.98922961    -0.010633023    11585.238    
    375000   0.6522572      0.0067531921  -0.98624877     0.97456398    -0.011684793    11585.238    
    376000   0.66131453     0.008917844   -1.0019391      0.98809691    -0.013842194    11585.238    
    377000   0.69278059     0.012537951   -1.0524759      1.0351116     -0.01736423     11585.238    
    378000   0.66521317     0.0078742332  -1.0069098      0.99392202    -0.012987742    11585.238    
    379000   0.68051649     0.0096996089  -1.0314268      1.0167873     -0.014639456    11585.238    
    380000   0.68647723     0.0072457522  -1.038343       1.0256935     -0.01264949     11585.238    
    381000   0.67498838     0.0048252804  -1.0197636      1.0085276     -0.011236032    11585.238    
    382000   0.70186626     0.0088515862  -1.0637341      1.0486869     -0.015047252    11585.238    
    383000   0.69650935     0.0097327953  -1.0566317      1.0406829     -0.015948801    11585.238    
    384000   0.6698613      0.006732157   -1.0140079      1.000867      -0.013140929    11585.238    
    385000   0.6603095      0.0098633997  -1.0011836      0.98659525    -0.014588339    11585.238    
    386000   0.69005058     0.012757252   -1.0470155      1.0310326     -0.015982913    11585.238    
    387000   0.68288863     0.0087779887  -1.0361186      1.0203316     -0.015786962    11585.238    
    388000   0.68773765     0.010346269   -1.0452277      1.0275768     -0.017650975    11585.238    
    389000   0.70069562     0.01148034    -1.0616631      1.0469378     -0.014725266    11585.238    
    390000   0.68355439     0.0059237782  -1.0361256      1.0213264     -0.014799187    11585.238    
    391000   0.64768865     0.014873774   -0.9806114      0.96773792    -0.012873479    11585.238    
    392000   0.68983741     0.0078969847  -1.0416917      1.0307141     -0.010977607    11585.238    
    393000   0.68781149     0.013753348   -1.0440283      1.0276871     -0.016341211    11585.238    
    394000   0.669097       0.0090112491  -1.0096493      0.99972501    -0.0099242451   11585.238    
    395000   0.66227074     0.009019635   -1.0027192      0.98952561    -0.013193636    11585.238    
    396000   0.65637611     0.0088683816  -0.9896848      0.98071821    -0.0089665925   11585.238    
    397000   0.65948454     0.011450876   -0.99824008     0.98536264    -0.012877439    11585.238    
    398000   0.67723389     0.012390446   -1.024914       1.0118827     -0.01303133     11585.238    
    399000   0.70675168     0.010840206   -1.0705232      1.0559864     -0.014536768    11585.238    
    400000   0.69431674     0.013298217   -1.0477646      1.0374068     -0.010357776    11585.238    
    401000   0.63342836     0.012252914   -0.95307994     0.94643104    -0.0066489014   11585.238    
    402000   0.63481336     0.0062231669  -0.9551953      0.94850043    -0.0066948698   11585.238    
    403000   0.66523324     0.0090682507  -1.0062239      0.99395201    -0.012271933    11585.238    
    404000   0.66380083     0.0093558744  -1.0045854      0.99181179    -0.012773607    11585.238    
    405000   0.66162975     0.0077339482  -0.99954032     0.98856788    -0.01097244     11585.238    
    406000   0.63773565     0.011564908   -0.96564724     0.95286675    -0.012780492    11585.238    
    407000   0.66150565     0.011133736   -1.0006839      0.98838246    -0.012301442    11585.238    
    408000   0.63882218     0.0045013795  -0.96390384     0.95449016    -0.0094136772   11585.238    
    409000   0.63807076     0.0040340199  -0.9604818      0.95336745    -0.0071143522   11585.238    
    410000   0.67457315     0.010046906   -1.0199559      1.0079072     -0.012048758    11585.238    
    411000   0.70471462     0.0097449641  -1.0701006      1.0529427     -0.0171579      11585.238    
    412000   0.7086727      0.011606594   -1.0786843      1.0588567     -0.019827617    11585.238    
    413000   0.69372251     0.0037164231  -1.0506773      1.036519      -0.014158328    11585.238    
    414000   0.6853288      0.0060390757  -1.038891       1.0239776     -0.01491339     11585.238    
    415000   0.72845637     0.006169474   -1.1116593      1.0884163     -0.023243092    11585.238    
    416000   0.74836866     0.010839354   -1.1388282      1.118168      -0.020660202    11585.238    
    417000   0.71324593     0.011409997   -1.0840234      1.0656897     -0.018333705    11585.238    
    418000   0.72829197     0.0096009345  -1.1079348      1.0881706     -0.019764185    11585.238    
    419000   0.73056237     0.015867772   -1.1128835      1.0915629     -0.021320559    11585.238    
    420000   0.70444336     0.012380173   -1.0697543      1.0525374     -0.017216891    11585.238    
    421000   0.72671786     0.0041938106  -1.1046147      1.0858187     -0.018795978    11585.238    
    422000   0.67757266     0.012096449   -1.0267578      1.0123888     -0.014368983    11585.238    
    423000   0.73132169     0.0074129796  -1.1105807      1.0926975     -0.017883227    11585.238    
    424000   0.7052233      0.011653806   -1.0716042      1.0537028     -0.01790143     11585.238    
    425000   0.67932828     0.0097815672  -1.0297024      1.015012      -0.014690434    11585.238    
    426000   0.73037517     0.0084964168  -1.1142357      1.0912832     -0.022952519    11585.238    
    427000   0.69064721     0.011315942   -1.0486306      1.0319241     -0.016706517    11585.238    
    428000   0.68932965     0.0067118943  -1.0466133      1.0299554     -0.016657825    11585.238    
    429000   0.69039037     0.0068715869  -1.0454011      1.0315403     -0.013860826    11585.238    
    430000   0.67934918     0.010342835   -1.0325204      1.0150432     -0.01747717     11585.238    
    431000   0.662594       0.0084102499  -1.0011461      0.99000862    -0.011137515    11585.238    
    432000   0.70113666     0.005216448   -1.0638185      1.0475968     -0.016221754    11585.238    
    433000   0.72075559     0.0086572629  -1.0949123      1.0769102     -0.018002102    11585.238    
    434000   0.69706606     0.014931048   -1.059064       1.0415147     -0.017549311    11585.238    
    435000   0.70170873     0.007739303   -1.0644558      1.0484515     -0.016004308    11585.238    
    436000   0.69455821     0.011752677   -1.0538646      1.0377676     -0.016096969    11585.238    
    437000   0.71759082     0.01093104    -1.0912148      1.0721816     -0.019033223    11585.238    
    438000   0.67154115     0.0064654131  -1.0179784      1.0033769     -0.014601484    11585.238    
    439000   0.668057       0.013388227   -1.0113981      0.9981711     -0.013227022    11585.238    
    440000   0.65043339     0.0050160752  -0.98347803     0.97183895    -0.011639072    11585.238    
    441000   0.65347982     0.014763311   -0.99182808     0.97639075    -0.015437329    11585.238    
    442000   0.66934945     0.0068630762  -1.0152219      1.0001022     -0.01511971     11585.238    
    443000   0.64740455     0.0060400559  -0.97691894     0.96731344    -0.0096055006   11585.238    
    444000   0.64945561     0.015434972   -0.9861101      0.97037801    -0.01573209     11585.238    
    445000   0.67991805     0.012048043   -1.0321769      1.0158932     -0.016283674    11585.238    
    446000   0.63980705     0.0084397527  -0.96867226     0.9559617     -0.012710562    11585.238    
    447000   0.66013492     0.0049089714  -0.99714332     0.98633439    -0.010808928    11585.238    
    448000   0.66110475     0.0093014657  -1.0010617      0.98778347    -0.01327821     11585.238    
    449000   0.64756481     0.0060104567  -0.9788095      0.96755289    -0.011256616    11585.238    
    450000   0.66768074     0.007931916   -1.0115054      0.99760891    -0.013896501    11585.238    
    451000   0.67465375     0.0095980273  -1.0229395      1.0080276     -0.014911892    11585.238    
    452000   0.65285075     0.0036199912  -0.98767294     0.97545082    -0.012222117    11585.238    
    453000   0.67921896     0.009849229   -1.0340921      1.0148486     -0.019243506    11585.238    
    454000   0.67033008     0.0093037103  -1.019679       1.0015674     -0.018111632    11585.238    
    455000   0.69556824     0.0089301472  -1.057525       1.0392768     -0.018248248    11585.238    
    456000   0.68412264     0.010457687   -1.0390043      1.0221754     -0.01682887     11585.238    
    457000   0.69968317     0.015690024   -1.0650774      1.0454251     -0.019652385    11585.238    
    458000   0.69427601     0.012134529   -1.0540363      1.037346      -0.016690338    11585.238    
    459000   0.69230826     0.014779325   -1.0505629      1.0344059     -0.016157027    11585.238    
    460000   0.66072653     0.0013606088  -1.0018999      0.98721835    -0.014681501    11585.238    
    461000   0.67385231     0.0052039294  -1.0221674      1.0068301     -0.015337279    11585.238    
    462000   0.66763822     0.010685343   -1.01256        0.99754539    -0.015014589    11585.238    
    463000   0.67693958     0.012862807   -1.0248989      1.0114429     -0.013455937    11585.238    
    464000   0.69060164     0.0099451884  -1.049059       1.031856      -0.017202987    11585.238    
    465000   0.70315975     0.0099302945  -1.0678066      1.0506195     -0.017187081    11585.238    
    466000   0.66234909     0.0074993976  -1.0033137      0.98964269    -0.013670973    11585.238    
    467000   0.65015394     0.0089534673  -0.9839564      0.97142141    -0.012534991    11585.238    
    468000   0.69034354     0.012815928   -1.0487726      1.0314703     -0.017302269    11585.238    
    469000   0.63095759     0.0059339935  -0.94847425     0.94273937    -0.0057348765   11585.238    
    470000   0.63922326     0.013141423   -0.96564469     0.95508945    -0.010555245    11585.238    
    471000   0.6447798      0.012342901   -0.97851682     0.9633917     -0.015125123    11585.238    
    472000   0.62757682     0.011683971   -0.95195901     0.93768802    -0.014270994    11585.238    
    473000   0.69011258     0.006087436   -1.0482959      1.0311252     -0.01717069     11585.238    
    474000   0.6653529      0.0040231532  -1.0061797      0.9941308     -0.012048918    11585.238    
    475000   0.63893657     0.0055373478  -0.96420493     0.95466108    -0.0095438499   11585.238    
    476000   0.64201461     0.008833742   -0.9722827      0.95926011    -0.013022584    11585.238    
    477000   0.63228426     0.0075777684  -0.95526451     0.9447216     -0.010542902    11585.238    
    478000   0.64703665     0.010144904   -0.98158699     0.96676375    -0.014823243    11585.238    
    479000   0.65476323     0.010229532   -0.99248095     0.97830834    -0.014172618    11585.238    
    480000   0.65586233     0.010683343   -0.99205197     0.97995055    -0.012101419    11585.238    
    481000   0.64004445     0.0057729676  -0.96912655     0.95631641    -0.012810144    11585.238    
    482000   0.63746237     0.0055065175  -0.96437916     0.95245842    -0.011920744    11585.238    
    483000   0.63529649     0.005636967   -0.96373985     0.94922229    -0.014517556    11585.238    
    484000   0.60737875     0.0049374175  -0.9171959      0.90750927    -0.0096866277   11585.238    
    485000   0.65291306     0.0088593274  -0.9911431      0.97554392    -0.015599175    11585.238    
    486000   0.70616938     0.0066416789  -1.076459       1.0551164     -0.021342668    11585.238    
    487000   0.63872332     0.0047946268  -0.96958247     0.95434246    -0.015240003    11585.238    
    488000   0.65507147     0.010275119   -0.9873148      0.9787689     -0.0085458984   11585.238    
    489000   0.68682724     0.010586172   -1.0442785      1.0262165     -0.018062028    11585.238    
    490000   0.6788652      0.013181129   -1.0303804      1.0143201     -0.01606031     11585.238    
    491000   0.71803625     0.006795095   -1.0914453      1.0728471     -0.018598225    11585.238    
    492000   0.73331551     0.0099085523  -1.1165892      1.0956765     -0.020912692    11585.238    
    493000   0.73090732     0.013058205   -1.1144865      1.0920783     -0.022408179    11585.238    
    494000   0.69658267     0.011972689   -1.0580277      1.0407925     -0.017235235    11585.238    
    495000   0.721619       0.0072912252  -1.0939671      1.0782003     -0.015766817    11585.238    
    496000   0.70517534     0.011094504   -1.0697482      1.0536311     -0.016117047    11585.238    
    497000   0.72703143     0.0093029905  -1.1072676      1.0862872     -0.020980427    11585.238    
    498000   0.72350395     0.011761799   -1.1051615      1.0810166     -0.02414481     11585.238    
    499000   0.71498884     0.013426856   -1.0897935      1.0682939     -0.021499647    11585.238    
    500000   0.70873354     0.009203089   -1.0778441      1.0589476     -0.018896517    11585.238    
    501000   0.69742987     0.012979025   -1.062182       1.0420583     -0.020123723    11585.238    
    502000   0.75163578     0.010876871   -1.1482851      1.1230495     -0.025235561    11585.238    
    503000   0.68475549     0.012090511   -1.0433069      1.023121      -0.02018592     11585.238    
    504000   0.70157299     0.0081416659  -1.0685498      1.0482487     -0.020301061    11585.238    
    505000   0.74210893     0.0096313841  -1.131151       1.1088151     -0.022335886    11585.238    
    506000   0.70060774     0.0085909646  -1.0664115      1.0468065     -0.019604978    11585.238    
    507000   0.67841561     0.0099506952  -1.033259       1.0136483     -0.019610636    11585.238    
    508000   0.68923442     0.0089972736  -1.0473455      1.0298131     -0.017532344    11585.238    
    509000   0.73052978     0.0065808914  -1.1135636      1.0915142     -0.022049427    11585.238    
    510000   0.70125635     0.0096432035  -1.0652854      1.0477756     -0.017509783    11585.238    
    511000   0.71454961     0.014265089   -1.0880877      1.0676376     -0.020450138    11585.238    
    512000   0.71954099     0.010571093   -1.0969018      1.0750954     -0.021806393    11585.238    
    513000   0.68603795     0.0097280339  -1.0464789      1.0250372     -0.021441768    11585.238    
    514000   0.72305703     0.0078611716  -1.1009805      1.0803489     -0.020631619    11585.238    
    515000   0.71376496     0.012482104   -1.0880462      1.0664652     -0.021580993    11585.238    
    516000   0.72113793     0.0075666365  -1.0975998      1.0774815     -0.020118312    11585.238    
    517000   0.75088786     0.0093063611  -1.1438727      1.1219321     -0.021940592    11585.238    
    518000   0.71282975     0.0055511931  -1.0834142      1.0650679     -0.018346316    11585.238    
    519000   0.69226531     0.0097591135  -1.0530395      1.0343417     -0.018697802    11585.238    
    520000   0.70774572     0.0066141008  -1.0801059      1.0574716     -0.022634249    11585.238    
    521000   0.71020702     0.0078404372  -1.0804408      1.0611492     -0.019291584    11585.238    
    522000   0.70922448     0.01244211    -1.0803616      1.0596811     -0.020680447    11585.238    
    523000   0.70174039     0.0069480078  -1.0706449      1.0484988     -0.022146088    11585.238    
    524000   0.68388358     0.0088284867  -1.0408532      1.0218182     -0.019034954    11585.238    
    525000   0.65853266     0.0088285161  -1.001511       0.9839404     -0.017570624    11585.238    
    526000   0.68397189     0.013227514   -1.0419965      1.0219502     -0.020046262    11585.238    
    527000   0.67492029     0.0069646149  -1.0245385      1.0084258     -0.016112684    11585.238    
    528000   0.66096451     0.010704515   -1.0006949      0.98757393    -0.01312099     11585.238    
    529000   0.65064395     0.0069327846  -0.9843002      0.97215356    -0.012146642    11585.238    
    530000   0.63657433     0.009263558   -0.96329922     0.95113156    -0.012167657    11585.238    
    531000   0.6198349      0.0094951788  -0.93857391     0.92612051    -0.0124534      11585.238    
    532000   0.67364201     0.012332833   -1.0218719      1.0065159     -0.015356028    11585.238    
    533000   0.64715574     0.0047509509  -0.97839194     0.96694169    -0.011450255    11585.238    
    534000   0.68793766     0.0085151871  -1.044429       1.0278756     -0.01655335     11585.238    
    535000   0.65465762     0.014541404   -0.9935725      0.97815054    -0.015421961    11585.238    
    536000   0.64109639     0.0072063606  -0.97188369     0.95788816    -0.013995539    11585.238    
    537000   0.68573626     0.0098011681  -1.0417629      1.0245864     -0.017176489    11585.238    
    538000   0.64773006     0.0063409863  -0.98355631     0.9677998     -0.015756509    11585.238    
    539000   0.66691091     0.0063089352  -1.0136212      0.99645868    -0.017162493    11585.238    
    540000   0.65672142     0.0064549054  -0.99608239     0.98123415    -0.014848235    11585.238    
    541000   0.68214195     0.012199277   -1.0403054      1.019216      -0.021089423    11585.238    
    542000   0.66232833     0.011338976   -1.0072104      0.98961166    -0.017598762    11585.238    
    543000   0.65612813     0.0096963744  -0.9935763      0.98034769    -0.013228616    11585.238    
    544000   0.63643294     0.0091453394  -0.96305379     0.95092031    -0.012133478    11585.238    
    545000   0.64977167     0.0084751967  -0.98400825     0.97085025    -0.013158004    11585.238    
    546000   0.64060279     0.0042765519  -0.97253434     0.95715066    -0.015383683    11585.238    
    547000   0.66907072     0.0091441032  -1.0160268      0.99968574    -0.01634109     11585.238    
    548000   0.66169935     0.0060172494  -1.0039161      0.98867189    -0.015244188    11585.238    
    549000   0.65984836     0.012951756   -1.0005112      0.98590625    -0.014604981    11585.238    
    550000   0.64281368     0.0093194254  -0.97373703     0.96045403    -0.013283005    11585.238    
    551000   0.67653418     0.0073933684  -1.0251663      1.0108372     -0.01432906     11585.238    
    552000   0.6489856      0.014698383   -0.98504189     0.96967575    -0.015366133    11585.238    
    553000   0.67815968     0.0059556392  -1.0300456      1.0132659     -0.016779702    11585.238    
    554000   0.6610002      0.0075150226  -1.0016954      0.98762726    -0.014068154    11585.238    
    555000   0.65660753     0.011021674   -0.99655735     0.98106399    -0.015493359    11585.238    
    556000   0.66562171     0.0099409868  -1.0083168      0.99453244    -0.013784335    11585.238    
    557000   0.65389829     0.009040735   -0.99394657     0.977016      -0.016930572    11585.238    
    558000   0.67558381     0.0032069524  -1.0231761      1.0094172     -0.013758923    11585.238    
    559000   0.62722827     0.011181127   -0.94844521     0.93716724    -0.011277968    11585.238    
    560000   0.63524597     0.011228706   -0.96118383     0.94914681    -0.012037022    11585.238    
    561000   0.61152212     0.0082567867  -0.92376285     0.91370005    -0.010062802    11585.238    
    562000   0.60179648     0.006163786   -0.90686431     0.89916857    -0.0076957382   11585.238    
    563000   0.64384565     0.012702988   -0.97928904     0.96199594    -0.017293095    11585.238    
    564000   0.65583655     0.0074693644  -0.993727       0.97991203    -0.013814974    11585.238    
    565000   0.64990282     0.013908961   -0.98331495     0.97104621    -0.012268744    11585.238    
    566000   0.65024909     0.0093505589  -0.98517861     0.97156359    -0.013615027    11585.238    
    567000   0.63379868     0.011841572   -0.96288113     0.94698436    -0.01589677     11585.238    
    568000   0.65023555     0.0094041863  -0.98584144     0.97154335    -0.014298091    11585.238    
    569000   0.70497933     0.0079594789  -1.0741163      1.0533383     -0.020777995    11585.238    
    570000   0.67302706     0.012419936   -1.0240868      1.0055971     -0.018489702    11585.238    
    571000   0.64481749     0.010967884   -0.97827946     0.96344801    -0.014831448    11585.238    
    572000   0.65919036     0.014051384   -1.00007        0.9849231     -0.015146898    11585.238    
    573000   0.6472636      0.0032953534  -0.98070901     0.96710285    -0.013606169    11585.238    
    574000   0.66462369     0.0074229169  -1.0119726      0.99304126    -0.018931304    11585.238    
    575000   0.6859171      0.010212888   -1.0441869      1.0248566     -0.019330327    11585.238    
    576000   0.64404622     0.011715472   -0.97587073     0.96229561    -0.013575117    11585.238    
    577000   0.63544317     0.0051543352  -0.95857998     0.94944146    -0.0091385194   11585.238    
    578000   0.67117558     0.01216561    -1.0167601      1.0028307     -0.013929363    11585.238    
    579000   0.65456014     0.0098055991  -0.99340679     0.9780049     -0.015401886    11585.238    
    580000   0.67722929     0.0098783101  -1.0261038      1.0118758     -0.014227989    11585.238    
    581000   0.69124828     0.0051155573  -1.0542766      1.0328221     -0.021454473    11585.238    
    582000   0.74228775     0.010059873   -1.1338237      1.1090823     -0.024741458    11585.238    
    583000   0.70537978     0.0075433488  -1.0743659      1.0539366     -0.020429263    11585.238    
    584000   0.73228036     0.012381646   -1.1191708      1.0941298     -0.025041011    11585.238    
    585000   0.70833117     0.010746323   -1.0807587      1.0583464     -0.022412315    11585.238    
    586000   0.73776302     0.0085552538  -1.1257358      1.1023217     -0.023414054    11585.238    
    587000   0.74272374     0.01036271    -1.1347847      1.1097337     -0.025050961    11585.238    
    588000   0.70571428     0.0076526681  -1.0788464      1.0544364     -0.024409985    11585.238    
    589000   0.72601699     0.012776917   -1.106307       1.0847715     -0.021535506    11585.238    
    590000   0.67086257     0.0051018883  -1.0181735      1.002363      -0.015810434    11585.238    
    591000   0.72675486     0.01013234    -1.1078746      1.085874      -0.022000659    11585.238    
    592000   0.71148423     0.0065416056  -1.0831114      1.0630575     -0.020053958    11585.238    
    593000   0.6815309      0.0096690593  -1.0362327      1.018303      -0.017929704    11585.238    
    594000   0.72644791     0.0096614981  -1.109193       1.0854153     -0.023777635    11585.238    
    595000   0.68564115     0.0057103348  -1.0427433      1.0244443     -0.018299029    11585.238    
    596000   0.69270633     0.010684238   -1.0540717      1.0350007     -0.019071051    11585.238    
    597000   0.71173004     0.0085649643  -1.0827696      1.0634248     -0.019344809    11585.238    
    598000   0.66428776     0.0059001861  -1.0122065      0.99253932    -0.019667162    11585.238    
    599000   0.69648206     0.0060040903  -1.0655487      1.0406421     -0.024906595    11585.238    
    600000   0.71007009     0.012895709   -1.0838941      1.0609446     -0.022949502    11585.238    
    601000   0.71368663     0.014385162   -1.0920935      1.0663482     -0.025745299    11585.238    
    602000   0.70686482     0.015397363   -1.0810878      1.0561554     -0.024932357    11585.238    
    603000   0.73749254     0.011670484   -1.1291926      1.1019176     -0.027275081    11585.238    
    604000   0.73178064     0.0074828581  -1.1170431      1.0933832     -0.023659946    11585.238    
    605000   0.71454769     0.0075148564  -1.0894274      1.0676347     -0.021792675    11585.238    
    606000   0.72948456     0.0084933409  -1.1132643      1.0899525     -0.023311817    11585.238    
    607000   0.77084233     0.0088158179  -1.1770027      1.1517468     -0.025255816    11585.238    
    608000   0.66718441     0.0085783908  -1.0149205      0.99686733    -0.018053178    11585.238    
    609000   0.69653249     0.0068930044  -1.0612754      1.0407175     -0.020557918    11585.238    
    610000   0.70218228     0.0095248736  -1.0727588      1.0491591     -0.023599708    11585.238    
    611000   0.67113231     0.0088087226  -1.0227139      1.002766      -0.019947869    11585.238    
    612000   0.67815592     0.0097240482  -1.035095       1.0132603     -0.021834733    11585.238    
    613000   0.68156474     0.005230183   -1.040512       1.0183536     -0.022158454    11585.238    
    614000   0.68819229     0.0074713506  -1.0491683      1.0282561     -0.020912212    11585.238    
    615000   0.68698925     0.0095089331  -1.0446043      1.0264586     -0.018145719    11585.238    
    616000   0.69077049     0.0099921965  -1.0528608      1.0321083     -0.02075253     11585.238    
    617000   0.70770877     0.011923216   -1.0804212      1.0574164     -0.023004733    11585.238    
    618000   0.67527958     0.014020348   -1.0290656      1.0089627     -0.020102977    11585.238    
    619000   0.67065912     0.012187326   -1.0206912      1.002059      -0.018632191    11585.238    
    620000   0.68242141     0.0094481514  -1.0415484      1.0196336     -0.021914888    11585.238    
    621000   0.68297521     0.0059874945  -1.0398578      1.020461      -0.019396821    11585.238    
    622000   0.69046518     0.0080825931  -1.0527288      1.0316521     -0.021076691    11585.238    
    623000   0.70422049     0.010052723   -1.0753715      1.0522044     -0.023167065    11585.238    
    624000   0.6363997      0.0024008625  -0.96720581     0.95087064    -0.016335167    11585.238    
    625000   0.67497663     0.0066805025  -1.0268333      1.00851       -0.01832328     11585.238    
    626000   0.6859399      0.010455427   -1.0453523      1.0248907     -0.020461613    11585.238    
    627000   0.66823168     0.0089487549  -1.0146519      0.9984321     -0.016219814    11585.238    
    628000   0.65385641     0.0056473724  -0.99426583     0.97695342    -0.017312405    11585.238    
    629000   0.65946526     0.0091542323  -0.99925392     0.98533384    -0.013920082    11585.238    
    630000   0.67893121     0.012557416   -1.0307982      1.0144187     -0.016379531    11585.238    
    631000   0.68541812     0.0093086068  -1.0408253      1.0241111     -0.016714234    11585.238    
    632000   0.66224714     0.0063166327  -1.0057339      0.98949036    -0.016243545    11585.238    
    633000   0.65921525     0.0073565762  -0.99794741     0.98496028    -0.012987131    11585.238    
    634000   0.64914509     0.004993884   -0.98362877     0.96991405    -0.013714725    11585.238    
    635000   0.68583589     0.012682747   -1.0443344      1.0247353     -0.019599149    11585.238    
    636000   0.68657767     0.011206403   -1.0495995      1.0258436     -0.023755946    11585.238    
    637000   0.70423686     0.014064554   -1.0772022      1.0522289     -0.024973311    11585.238    
    638000   0.69607251     0.0055089193  -1.0588933      1.0400302     -0.018863094    11585.238    
    639000   0.64835014     0.010877334   -0.9851249      0.96872628    -0.016398618    11585.238    
    640000   0.62139643     0.0065750279  -0.94119493     0.92845365    -0.01274128     11585.238    
    641000   0.66232614     0.0023519764  -1.0061721      0.98960839    -0.016563684    11585.238    
    642000   0.64545054     0.0067405384  -0.9805318      0.96439387    -0.016137923    11585.238    
    643000   0.66346832     0.012204987   -1.007858       0.99131497    -0.016543055    11585.238    
    644000   0.62301256     0.012971347   -0.94859171     0.93086838    -0.017723324    11585.238    
    645000   0.6239563      0.0056132275  -0.94743176     0.93227846    -0.015153308    11585.238    
    646000   0.66985896     0.0085213317  -1.0174165      1.0008635     -0.016553056    11585.238    
    647000   0.65316087     0.009549736   -0.99188322     0.97591419    -0.01596903     11585.238    
    648000   0.63234204     0.0063409609  -0.95800162     0.94480794    -0.013193681    11585.238    
    649000   0.65180933     0.0099145507  -0.9900344      0.9738948     -0.016139596    11585.238    
    650000   0.64946573     0.013885554   -0.98892836     0.97039313    -0.018535235    11585.238    
    651000   0.65654705     0.0059377848  -0.99735999     0.98097362    -0.016386373    11585.238    
    652000   0.63865326     0.01022425    -0.96883144     0.95423778    -0.014593659    11585.238    
    653000   0.69252263     0.013462382   -1.0553101      1.0347262     -0.020583864    11585.238    
    654000   0.62444448     0.0063586052  -0.94649217     0.93300786    -0.013484315    11585.238    
    655000   0.66308128     0.010892254   -1.0105417      0.99073668    -0.019805009    11585.238    
    656000   0.66857838     0.0097838568  -1.0154559      0.99895012    -0.016505741    11585.238    
    657000   0.63212684     0.0073791742  -0.95810146     0.9444864     -0.013615065    11585.238    
    658000   0.64350109     0.008429688   -0.97381397     0.96148112    -0.012332851    11585.238    
    659000   0.6293249      0.012053291   -0.95170863     0.9402999     -0.011408721    11585.238    
    660000   0.62976725     0.010613507   -0.95584547     0.94096083    -0.014884648    11585.238    
    661000   0.62486795     0.0064068996  -0.94494515     0.93364058    -0.011304566    11585.238    
    662000   0.61898362     0.0063298391  -0.93582817     0.92484858    -0.010979589    11585.238    
    663000   0.6639461      0.0062861454  -1.0071666      0.99202883    -0.015137733    11585.238    
    664000   0.66526282     0.011945449   -1.0142158      0.9939962     -0.02021963     11585.238    
    665000   0.71524706     0.0095540643  -1.0909048      1.0686797     -0.02222506     11585.238    
    666000   0.62760204     0.0058527036  -0.95434362     0.93772571    -0.016617915    11585.238    
    667000   0.66368        0.0096266406  -1.0124676      0.99163125    -0.020836315    11585.238    
    668000   0.68006071     0.0055824418  -1.035923       1.0161063     -0.019816682    11585.238    
    669000   0.69907335     0.0079279444  -1.0664721      1.0445139     -0.021958182    11585.238    
    670000   0.68866433     0.0051420932  -1.0483839      1.0289614     -0.019422517    11585.238    
    671000   0.72655754     0.011692907   -1.1132185      1.0855791     -0.027639312    11585.238    
    672000   0.66503407     0.014163608   -1.0132985      0.99365442    -0.01964407     11585.238    
    673000   0.6842625      0.013326299   -1.0446389      1.0223844     -0.022254479    11585.238    
    674000   0.68659703     0.0043123959  -1.0461924      1.0258725     -0.020319875    11585.238    
    675000   0.6937638      0.009042983   -1.0604793      1.0365807     -0.023898596    11585.238    
    676000   0.69436732     0.013145716   -1.0587971      1.0374824     -0.021314701    11585.238    
    677000   0.68357312     0.010652163   -1.0395613      1.0213544     -0.018206937    11585.238    
    678000   0.67134558     0.010347021   -1.021468       1.0030847     -0.018383335    11585.238    
    679000   0.71687867     0.0090344344  -1.0928291      1.0711176     -0.021711544    11585.238    
    680000   0.70528946     0.011691302   -1.0752599      1.0538016     -0.02145822     11585.238    
    681000   0.65416851     0.0088964251  -0.99234631     0.97741975    -0.014926564    11585.238    
    682000   0.7295151      0.0077308744  -1.1162013      1.0899981     -0.026203139    11585.238    
    683000   0.68483926     0.0025197322  -1.0424149      1.0232462     -0.019168743    11585.238    
    684000   0.67236736     0.0063871328  -1.0251144      1.0046114     -0.020502993    11585.238    
    685000   0.68502895     0.0063889556  -1.046619       1.0235296     -0.023089448    11585.238    
    686000   0.69926162     0.012006      -1.0675563      1.0447952     -0.022761102    11585.238    
    687000   0.70449512     0.0062585005  -1.0794918      1.0526148     -0.026877031    11585.238    
    688000   0.7308771      0.0098027053  -1.1212151      1.0920332     -0.029181929    11585.238    
    689000   0.72643749     0.014241808   -1.1119364      1.0853998     -0.026536604    11585.238    
    690000   0.7166107      0.010089381   -1.096643       1.0707172     -0.025925838    11585.238    
    691000   0.73087319     0.011279977   -1.1225306      1.0920273     -0.03050326     11585.238    
    692000   0.73449398     0.0096677007  -1.1254762      1.0974373     -0.028038938    11585.238    
    693000   0.72445245     0.008947501   -1.1092051      1.0824338     -0.026771233    11585.238    
    694000   0.6937874      0.0078096453  -1.0593968      1.0366159     -0.02278082     11585.238    
    695000   0.72227743     0.013197279   -1.1057818      1.0791841     -0.026597724    11585.238    
    696000   0.70002038     0.0097990222  -1.0692832      1.0459289     -0.023354269    11585.238    
    697000   0.72231554     0.011285551   -1.1042434      1.079241      -0.025002442    11585.238    
    698000   0.72185488     0.0088852146  -1.1019711      1.0785527     -0.023418349    11585.238    
    699000   0.7210129      0.01250704    -1.1071899      1.0772947     -0.029895252    11585.238    
    700000   0.71966878     0.011118487   -1.1035292      1.0752864     -0.02824289     11585.238    
    701000   0.69277943     0.0099234689  -1.0596337      1.0351099     -0.02452383     11585.238    
    702000   0.69386232     0.0089734871  -1.0618354      1.0367279     -0.025107552    11585.238    
    703000   0.72872211     0.0086360907  -1.1173139      1.0888133     -0.028500645    11585.238    
    704000   0.7256309      0.012762788   -1.1140651      1.0841946     -0.029870518    11585.238    
    705000   0.73166636     0.0038199589  -1.1216138      1.0932124     -0.028401328    11585.238    
    706000   0.71719966     0.0077365231  -1.0983873      1.0715971     -0.026790167    11585.238    
    707000   0.70353506     0.0090242809  -1.0759538      1.0511803     -0.024773526    11585.238    
    708000   0.71083317     0.010825203   -1.0883924      1.0620847     -0.026307722    11585.238    
    709000   0.68483888     0.013503038   -1.0450819      1.0232456     -0.021836339    11585.238    
    710000   0.69901348     0.010216803   -1.0700416      1.0444244     -0.025617176    11585.238    
    711000   0.69362386     0.014621172   -1.0609329      1.0363716     -0.024561334    11585.238    
    712000   0.70472183     0.0072812742  -1.0776065      1.0529535     -0.024653035    11585.238    
    713000   0.68882368     0.0088954518  -1.0538022      1.0291994     -0.02460279     11585.238    
    714000   0.7168619      0.008341316   -1.0988648      1.0710925     -0.027772308    11585.238    
    715000   0.71932222     0.007614409   -1.0978318      1.0747685     -0.023063209    11585.238    
    716000   0.6676793      0.0070025714  -1.0192552      0.99760676    -0.021648479    11585.238    
    717000   0.72860206     0.014953331   -1.1178022      1.0886339     -0.02916823     11585.238    
    718000   0.71734169     0.015505353   -1.0991872      1.0718094     -0.027377872    11585.238    
    719000   0.69450306     0.011295199   -1.0629175      1.0376852     -0.025232276    11585.238    
    720000   0.71048096     0.01048948    -1.0882908      1.0615585     -0.026732332    11585.238    
    721000   0.71122531     0.01111068    -1.088016       1.0626706     -0.025345392    11585.238    
    722000   0.66861743     0.0093247956  -1.0201823      0.99900847    -0.021173876    11585.238    
    723000   0.73055588     0.009338314   -1.1155933      1.0915532     -0.024040052    11585.238    
    724000   0.73089672     0.012578528   -1.1196192      1.0920625     -0.027556749    11585.238    
    725000   0.74661029     0.013990915   -1.1429931      1.1155408     -0.027452366    11585.238    
    726000   0.68342985     0.005322588   -1.0427183      1.0211403     -0.021578031    11585.238    
    727000   0.66916648     0.0046061989  -1.0212635      0.99982882    -0.021434724    11585.238    
    728000   0.71477532     0.0051420023  -1.0963263      1.0679748     -0.028351461    11585.238    
    729000   0.72536609     0.0088209674  -1.1144299      1.0837989     -0.030630946    11585.238    
    730000   0.69851        0.0078073461  -1.0699003      1.0436722     -0.026228168    11585.238    
    731000   0.73276157     0.008583473   -1.1253596      1.0948488     -0.03051072     11585.238    
    732000   0.72129474     0.016458764   -1.1085381      1.0777158     -0.030822348    11585.238    
    733000   0.72635941     0.009956202   -1.1144095      1.0852831     -0.029126394    11585.238    
    734000   0.74905735     0.010227584   -1.1501023      1.119197      -0.030905297    11585.238    
    735000   0.71100696     0.0082217861  -1.0871879      1.0623444     -0.024843522    11585.238    
    736000   0.74552364     0.011527648   -1.1429082      1.1139172     -0.028991043    11585.238    
    737000   0.74051882     0.007747044   -1.133526       1.1064393     -0.027086704    11585.238    
    738000   0.71840638     0.0082999968  -1.0980581      1.0734002     -0.024657989    11585.238    
    739000   0.69285622     0.0078410008  -1.0616265      1.0352246     -0.026401876    11585.238    
    740000   0.72422104     0.01758066    -1.1120915      1.0820881     -0.030003394    11585.238    
    741000   0.70984764     0.015425497   -1.0933903      1.0606122     -0.032778091    11585.238    
    742000   0.74580253     0.011624268   -1.1461677      1.1143339     -0.031833874    11585.238    
    743000   0.69983225     0.0079794526  -1.0713806      1.0456478     -0.025732769    11585.238    
    744000   0.65499016     0.0049858683  -0.99903008     0.97864741    -0.020382667    11585.238    
    745000   0.67642075     0.0052803592  -1.0323968      1.0106677     -0.021729126    11585.238    
    746000   0.70710404     0.010100986   -1.0790684      1.0565129     -0.022555572    11585.238    
    747000   0.67769508     0.010134491   -1.0360103      1.0125717     -0.023438584    11585.238    
    748000   0.72944594     0.0053811188  -1.1149815      1.0898948     -0.025086719    11585.238    
    749000   0.70265926     0.0084430789  -1.07671        1.0498717     -0.026838254    11585.238    
    750000   0.723374       0.0088371888  -1.1066357      1.0808225     -0.025813262    11585.238    
    751000   0.68577769     0.0071476782  -1.048652       1.0246483     -0.024003671    11585.238    
    752000   0.67202358     0.012711683   -1.0293207      1.0040977     -0.025222964    11585.238    
    753000   0.68601389     0.010621284   -1.0501127      1.0250012     -0.025111468    11585.238    
    754000   0.69433838     0.011122237   -1.0594012      1.0374392     -0.021962065    11585.238    
    755000   0.69398575     0.011875143   -1.0601634      1.0369123     -0.023251089    11585.238    
    756000   0.68007515     0.0099223599  -1.0389154      1.0161279     -0.022787484    11585.238    
    757000   0.69301861     0.0077552786  -1.0585485      1.0354673     -0.02308129     11585.238    
    758000   0.71643015     0.011697889   -1.1026911      1.0704474     -0.032243663    11585.238    
    759000   0.67584903     0.0083108009  -1.0363136      1.0098135     -0.02650009     11585.238    
    760000   0.7041511      0.0074501002  -1.0773434      1.0521008     -0.025242585    11585.238    
    761000   0.70723296     0.0047328851  -1.082842       1.0567055     -0.026136479    11585.238    
    762000   0.6892965      0.012322096   -1.0541854      1.0299059     -0.024279538    11585.238    
    763000   0.68661081     0.0049205274  -1.0501601      1.0258931     -0.024266978    11585.238    
    764000   0.70373225     0.0094183282  -1.0782012      1.0514749     -0.026726267    11585.238    
    765000   0.65149885     0.010490251   -0.99334581     0.9734309     -0.019914911    11585.238    
    766000   0.71675925     0.009275807   -1.0956593      1.0709391     -0.024720176    11585.238    
    767000   0.68208741     0.0090167669  -1.0424655      1.0191345     -0.023330954    11585.238    
    768000   0.69015395     0.010926087   -1.0578057      1.0311871     -0.026618634    11585.238    
    769000   0.68190815     0.0059806588  -1.0442107      1.0188667     -0.025343975    11585.238    
    770000   0.69680199     0.0077154549  -1.0668665      1.0411202     -0.025746346    11585.238    
    771000   0.69580016     0.0043135156  -1.061595       1.0396233     -0.021971739    11585.238    
    772000   0.70836238     0.012743735   -1.0815062      1.058393      -0.023113233    11585.238    
    773000   0.70905085     0.0075196412  -1.0847242      1.0594217     -0.025302509    11585.238    
[...]
    816000   0.72542055     0.013874212   -1.1120866      1.0838803     -0.028206331    11585.238    
    817000   0.67394719     0.010553613   -1.0308746      1.0069719     -0.023902685    11585.238    
    818000   0.69539907     0.011468395   -1.0642406      1.039024      -0.025216587    11585.238    
    819000   0.7225482      0.012625523   -1.1062597      1.0795886     -0.02667108     11585.238    
    820000   0.6666394      0.0083488112  -1.0200025      0.99605301    -0.023949482    11585.238    
    821000   0.71733724     0.011900411   -1.1006314      1.0718027     -0.028828731    11585.238    
    822000   0.69902825     0.009697112   -1.0694829      1.0444465     -0.025036421    11585.238    
    823000   0.6910967      0.0084631243  -1.0571057      1.0325957     -0.024510077    11585.238    
    824000   0.7200507      0.0077278327  -1.102618       1.075857      -0.026760976    11585.238    
    825000   0.71349274     0.0044980622  -1.0931342      1.0660585     -0.027075685    11585.238    
    826000   0.74855779     0.0067091968  -1.1504512      1.1184506     -0.032000637    11585.238    
    827000   0.72878779     0.0085476381  -1.1186799      1.0889114     -0.029768477    11585.238    
    828000   0.72558286     0.012139642   -1.1170673      1.0841228     -0.032944462    11585.238    
    829000   0.66697704     0.0049045036  -1.0194485      0.99655749    -0.022891022    11585.238    
    830000   0.70142399     0.01212934    -1.077189       1.0480261     -0.029162875    11585.238    
    831000   0.71226253     0.0070192265  -1.091215       1.0642204     -0.026994637    11585.238    
    832000   0.68001485     0.01098298    -1.0403939      1.0160378     -0.024356127    11585.238    
    833000   0.68405082     0.0057292582  -1.0460704      1.0220681     -0.024002229    11585.238    
    834000   0.70561359     0.0094115791  -1.0814727      1.0542859     -0.027186754    11585.238    
    835000   0.76955709     0.0099749108  -1.1859673      1.1498265     -0.036140785    11585.238    
    836000   0.72695872     0.0060437989  -1.1181942      1.0861786     -0.032015651    11585.238    
    837000   0.768401       0.013858969   -1.1849153      1.1480991     -0.036816115    11585.238    
    838000   0.77622235     0.011331936   -1.1961389      1.1597853     -0.036353582    11585.238    
    839000   0.75885388     0.0067435257  -1.1671112      1.1338344     -0.033276767    11585.238    
    840000   0.72873494     0.010062386   -1.1246947      1.0888325     -0.035862218    11585.238    
    841000   0.73438906     0.012717496   -1.1311846      1.0972805     -0.033904071    11585.238    
    842000   0.68751551     0.0082476118  -1.0543388      1.0272449     -0.027093919    11585.238    
    843000   0.65826794     0.0069771183  -1.0089381      0.98354487    -0.025393221    11585.238    
    844000   0.68858935     0.020281013   -1.0553094      1.0288493     -0.02646004     11585.238    
    845000   0.70065026     0.0083421074  -1.0713313      1.04687       -0.024461261    11585.238    
    846000   0.6988538      0.014130903   -1.0701024      1.0441859     -0.025916564    11585.238    
    847000   0.71686357     0.0092470164  -1.0997604      1.071095      -0.028665379    11585.238    
    848000   0.68104979     0.012649614   -1.0454302      1.0175842     -0.027846012    11585.238    
    849000   0.69473313     0.0058141117  -1.0653882      1.038029      -0.027359199    11585.238    
    850000   0.68390463     0.0044700956  -1.0455239      1.0218497     -0.02367425     11585.238    
    851000   0.709568       0.0073255388  -1.0867674      1.0601944     -0.026573061    11585.238    
    852000   0.72100429     0.00456593    -1.1080162      1.0772818     -0.030734444    11585.238    
    853000   0.71439377     0.012836235   -1.0969002      1.0674048     -0.029495462    11585.238    
    854000   0.69908256     0.011875137   -1.073664       1.0445276     -0.029136398    11585.238    
    855000   0.70244809     0.0059988456  -1.078742       1.0495562     -0.029185751    11585.238    
    856000   0.72725933     0.0064109701  -1.116798       1.0866277     -0.03017028     11585.238    
    857000   0.72138323     0.016299377   -1.1072603      1.077848      -0.02941232     11585.238    
    858000   0.68055046     0.012319617   -1.044138       1.0168381     -0.027299919    11585.238    
    859000   0.69926031     0.0047590187  -1.0730301      1.0447932     -0.028236853    11585.238    
    860000   0.69944064     0.0078680686  -1.0721449      1.0450627     -0.027082218    11585.238    
    861000   0.69420582     0.0058793107  -1.0631871      1.0372411     -0.025945955    11585.238    
    862000   0.68347804     0.0086117622  -1.0463823      1.0212123     -0.025169989    11585.238    
    863000   0.66775952     0.0082697057  -1.0224186      0.99772663    -0.024691968    11585.238    
    864000   0.70151549     0.0088036819  -1.0760298      1.0481628     -0.027867015    11585.238    
    865000   0.70640146     0.015053614   -1.0863405      1.0554631     -0.030877341    11585.238    
    866000   0.71388586     0.010347413   -1.0977924      1.0666459     -0.031146577    11585.238    
    867000   0.67788374     0.012856995   -1.038476       1.0128536     -0.025622418    11585.238    
    868000   0.72444462     0.0072794614  -1.1121802      1.0824221     -0.029758097    11585.238    
    869000   0.69100383     0.0057292721  -1.0600799      1.0324569     -0.027623048    11585.238    
    870000   0.69762116     0.0089945954  -1.0728914      1.0423441     -0.030547263    11585.238    
    871000   0.65517967     0.0060992707  -1.0080632      0.97893057    -0.029132633    11585.238    
    872000   0.71791147     0.0099304975  -1.1054939      1.0726607     -0.032833211    11585.238    
    873000   0.7205101      0.0026525857  -1.107782       1.0765434     -0.031238558    11585.238    
    874000   0.68860489     0.0063267216  -1.0565639      1.0288725     -0.027691385    11585.238    
    875000   0.67794165     0.0097062213  -1.038063       1.0129402     -0.025122892    11585.238    
    876000   0.68962601     0.0064932747  -1.0564887      1.0303982     -0.026090427    11585.238    
    877000   0.7099328      0.011390549   -1.0898972      1.0607394     -0.02915775     11585.238    
    878000   0.69142472     0.013195099   -1.062766       1.0330858     -0.029680262    11585.238    
    879000   0.65805836     0.011378754   -1.0085498      0.98323173    -0.025318026    11585.238    
    880000   0.71305485     0.0096544467  -1.093729       1.0654042     -0.028324732    11585.238    
    881000   0.69016459     0.0062263362  -1.0582729      1.031203      -0.027069982    11585.238    
    882000   0.74582977     0.012538833   -1.1495184      1.1143746     -0.035143838    11585.238    
    883000   0.71790613     0.013620695   -1.1039976      1.0726527     -0.03134485     11585.238    
    884000   0.71874251     0.0071744903  -1.103613       1.0739024     -0.029710652    11585.238    
    885000   0.72264854     0.0040779886  -1.1105232      1.0797385     -0.030784686    11585.238    
    886000   0.69934189     0.015602621   -1.0766892      1.0449151     -0.031774071    11585.238    
    887000   0.71522203     0.0074527276  -1.0966267      1.0686423     -0.027984372    11585.238    
    888000   0.65180986     0.0051827758  -1.0028139      0.97389559    -0.028918328    11585.238    
    889000   0.68887641     0.0061910486  -1.0605288      1.0292782     -0.031250615    11585.238    
    890000   0.75278032     0.0069731526  -1.1599042      1.1247597     -0.035144519    11585.238    
    891000   0.69800358     0.0048069291  -1.072481       1.0429155     -0.029565461    11585.238    
    892000   0.72015577     0.0039409906  -1.1061164      1.076014      -0.03010244     11585.238    
    893000   0.71601949     0.0060084491  -1.0973071      1.0698338     -0.027473266    11585.238    
    894000   0.68811062     0.012755749   -1.053746       1.028134      -0.025611994    11585.238    
    895000   0.73610416     0.010843509   -1.1335832      1.0998431     -0.033740077    11585.238    
    896000   0.71234934     0.011018983   -1.0959389      1.0643501     -0.031588789    11585.238    
    897000   0.71962303     0.0094322554  -1.1081131      1.075218      -0.03289513     11585.238    
    898000   0.73815838     0.008034776   -1.1345218      1.1029124     -0.031609431    11585.238    
    899000   0.7272995      0.0054994302  -1.1180519      1.0866877     -0.031364176    11585.238    
    900000   0.70413593     0.01655543    -1.0837616      1.0520781     -0.031683513    11585.238    
    901000   0.72360662     0.013622488   -1.1168745      1.08117       -0.035704453    11585.238    
    902000   0.69638939     0.011862881   -1.0728329      1.0405037     -0.032329188    11585.238    
    903000   0.69772245     0.012803507   -1.0755965      1.0424955     -0.033101052    11585.238    
    904000   0.72197606     0.012945689   -1.1147384      1.0787338     -0.03600468     11585.238    
    905000   0.7618382      0.0044581992  -1.175025       1.1382934     -0.03673162     11585.238    
    906000   0.72105229     0.0053286685  -1.109721       1.0773535     -0.032367492    11585.238    
    907000   0.71755169     0.0062681421  -1.1033725      1.0721231     -0.031249348    11585.238    
    908000   0.72163136     0.0071192101  -1.1124626      1.0782187     -0.034243892    11585.238    
    909000   0.70622548     0.0087256726  -1.0865981      1.0552002     -0.031397903    11585.238    
    910000   0.73253995     0.007457866   -1.1294781      1.0945177     -0.034960359    11585.238    
    911000   0.72127681     0.0057228141  -1.1111709      1.077689      -0.033481961    11585.238    
    912000   0.7304442      0.0092583669  -1.1245644      1.0913863     -0.033178099    11585.238    
    913000   0.71244485     0.016534732   -1.1008154      1.0644928     -0.036322605    11585.238    
    914000   0.72230242     0.0083308208  -1.1117685      1.0792214     -0.032547072    11585.238    
    915000   0.73731962     0.010901515   -1.1393142      1.1016592     -0.037655041    11585.238    
    916000   0.69335471     0.013986101   -1.0695192      1.0359694     -0.033549791    11585.238    
    917000   0.73392087     0.0069886991  -1.1258556      1.096581      -0.029274631    11585.238    
    918000   0.71222735     0.0075024333  -1.0944207      1.0641678     -0.03025287     11585.238    
    919000   0.73137407     0.009222942   -1.1239928      1.0927757     -0.031217073    11585.238    
    920000   0.69072744     0.014093887   -1.0615823      1.0320439     -0.029538336    11585.238    
    921000   0.67779067     0.013931383   -1.0424008      1.0127146     -0.02968618     11585.238    
    922000   0.71767936     0.0076968988  -1.1000639      1.0723139     -0.027749997    11585.238    
    923000   0.68925036     0.0065960576  -1.0589754      1.029837      -0.029138395    11585.238    
    924000   0.70890001     0.010570755   -1.0881366      1.0591963     -0.028940314    11585.238    
    925000   0.69997765     0.010224336   -1.0748155      1.045865      -0.028950457    11585.238    
    926000   0.67407666     0.01196251    -1.0323981      1.0071653     -0.025232807    11585.238    
    927000   0.68945388     0.012400691   -1.0569966      1.030141      -0.02685557     11585.238    
    928000   0.64621078     0.013116001   -0.98967803     0.96552977    -0.024148257    11585.238    
    929000   0.67560432     0.007793192   -1.0342037      1.0094479     -0.024755843    11585.238    
    930000   0.70830844     0.01314503    -1.0909586      1.0583124     -0.03264621     11585.238    
    931000   0.66993287     0.005130524   -1.0278091      1.0009739     -0.02683521     11585.238    
    932000   0.64499533     0.0077612057  -0.99000209     0.96371373    -0.026288361    11585.238    
    933000   0.69848255     0.0020466465  -1.0729112      1.0436312     -0.029280086    11585.238    
    934000   0.65092114     0.0057252565  -0.99690868     0.97256772    -0.024340963    11585.238    
    935000   0.67493855     0.006868578   -1.0358879      1.0084531     -0.027434793    11585.238    
    936000   0.68672591     0.0085532149  -1.0525656      1.0260651     -0.026500485    11585.238    
    937000   0.64831261     0.0049573576  -0.99128653     0.96867021    -0.022616321    11585.238    
    938000   0.65942075     0.0045433923  -1.0117394      0.98526733    -0.026472027    11585.238    
    939000   0.66374763     0.0079726873  -1.016497       0.9917323     -0.024764682    11585.238    
    940000   0.69888686     0.011049001   -1.0736048      1.0442352     -0.029369577    11585.238    
    941000   0.65974683     0.010119619   -1.0109387      0.98575454    -0.025184138    11585.238    
    942000   0.6278334      0.012925277   -0.96137139     0.93807139    -0.023299995    11585.238    
    943000   0.68160079     0.0075041433  -1.0446037      1.0184074     -0.026196275    11585.238    
    944000   0.67290437     0.010080088   -1.0341604      1.0054138     -0.028746646    11585.238    
    945000   0.6412917      0.0081972859  -0.98291509     0.95817998    -0.024735117    11585.238    
    946000   0.6293864      0.0081031407  -0.96022657     0.94039179    -0.019834781    11585.238    
    947000   0.65522791     0.004672726   -1.0042885      0.97900264    -0.025285861    11585.238    
    948000   0.63418058     0.0063108589  -0.97149654     0.94755496    -0.023941582    11585.238    
    949000   0.5889501      0.0040180475  -0.90087098     0.87997427    -0.020896708    11585.238    
    950000   0.61133329     0.0057690221  -0.93513158     0.9134179     -0.021713679    11585.238    
    951000   0.67325708     0.013197264   -1.0339843      1.0059407     -0.02804353     11585.238    
    952000   0.6517095      0.011396197   -0.99684056     0.97374564    -0.023094918    11585.238    
    953000   0.67065324     0.010221197   -1.0252228      1.0020502     -0.023172546    11585.238    
    954000   0.61669201     0.010236337   -0.94176425     0.92142458    -0.020339666    11585.238    
    955000   0.65762431     0.0056390104  -1.0062546      0.9825832     -0.023671395    11585.238    
    956000   0.61786652     0.017654597   -0.94329499     0.92317947    -0.020115516    11585.238    
    957000   0.64022321     0.0070921674  -0.9789011      0.95658351    -0.02231759     11585.238    
    958000   0.6713503      0.010790673   -1.0274453      1.0030918     -0.02435356     11585.238    
    959000   0.65180828     0.012527995   -0.99777631     0.97389323    -0.023883087    11585.238    
    960000   0.63733362     0.016463502   -0.97274376     0.95226605    -0.020477712    11585.238    
    961000   0.61068471     0.0044285459  -0.9286249      0.91244884    -0.016176069    11585.238    
    962000   0.63400809     0.0097563658  -0.96859738     0.94729725    -0.021300132    11585.238    
    963000   0.60580103     0.0096621315  -0.92461158     0.90515193    -0.019459655    11585.238    
    964000   0.6467153      0.0099367773  -0.98890106     0.9662836     -0.022617458    11585.238    
    965000   0.64919751     0.0115107     -0.99326093     0.96999237    -0.023268552    11585.238    
    966000   0.65274626     0.0086711875  -0.99835184     0.9752947     -0.023057134    11585.238    
    967000   0.65225171     0.0061983338  -0.99612611     0.97455578    -0.021570324    11585.238    
    968000   0.62987363     0.011328316   -0.96344469     0.94111978    -0.022324902    11585.238    
    969000   0.66307835     0.0067675806  -1.0146795      0.99073229    -0.023947208    11585.238    
    970000   0.63509556     0.0087748085  -0.9715611      0.94892207    -0.022639028    11585.238    
    971000   0.66601475     0.0083002865  -1.0214065      0.99511969    -0.026286844    11585.238    
    972000   0.65858351     0.0015013538  -1.0088401      0.98401638    -0.024823686    11585.238    
    973000   0.65914515     0.0071702993  -1.0117114      0.98485555    -0.026855852    11585.238    
    974000   0.6551877      0.0086588782  -1.0058924      0.97894256    -0.026949876    11585.238    
    975000   0.67560778     0.0073141968  -1.0369238      1.009453      -0.027470807    11585.238    
    976000   0.65003744     0.0066969829  -0.99720682     0.97124735    -0.025959465    11585.238    
    977000   0.64211596     0.013284482   -0.98659137     0.95941154    -0.02717983     11585.238    
    978000   0.62637416     0.0083849614  -0.96278656     0.93589107    -0.026895486    11585.238    
    979000   0.68338973     0.006037664   -1.0495875      1.0210804     -0.028507141    11585.238    
    980000   0.6715576      0.0083589781  -1.0304297      1.0034015     -0.027028231    11585.238    
    981000   0.66322346     0.0064872714  -1.0194532      0.99094911    -0.028504079    11585.238    
    982000   0.65072997     0.0084213161  -0.99844492     0.97228208    -0.026162841    11585.238    
    983000   0.68237733     0.0072004886  -1.0487396      1.0195677     -0.029171882    11585.238    
    984000   0.66666965     0.0061536411  -1.0220033      0.99609821    -0.025905046    11585.238    
    985000   0.63836581     0.0095696918  -0.97896199     0.9538083     -0.025153694    11585.238    
    986000   0.64457274     0.01112164    -0.98992304     0.96308232    -0.026840721    11585.238    
    987000   0.62942967     0.007252498   -0.9629369      0.94045644    -0.022480466    11585.238    
    988000   0.63990941     0.0044975694  -0.98038396     0.95611465    -0.024269309    11585.238    
    989000   0.6302688      0.010363369   -0.96260716     0.94171021    -0.020896946    11585.238    
    990000   0.65526264     0.0067145524  -1.0074405      0.97905453    -0.028385997    11585.238    
    991000   0.6190358      0.0041123826  -0.94917759     0.92492653    -0.024251054    11585.238    
    992000   0.62508091     0.010985661   -0.95552443     0.93395878    -0.021565656    11585.238    
    993000   0.59140591     0.0084944418  -0.90269589     0.8836436     -0.019052286    11585.238    
    994000   0.62509069     0.010462284   -0.95556204     0.9339734     -0.021588644    11585.238    
    995000   0.60041181     0.010584997   -0.91889231     0.89709968    -0.021792629    11585.238    
    996000   0.61263311     0.005105702   -0.93801546     0.91536001    -0.022655444    11585.238    
    997000   0.64319547     0.011300801   -0.98739687     0.96102449    -0.026372384    11585.238    
    998000   0.62893418     0.012302969   -0.96574406     0.93971611    -0.026027944    11585.238    
    999000   0.65619254     0.010885034   -1.007676       0.98044393    -0.027232078    11585.238    
   1000000   0.62522905     0.0059644262  -0.9568764      0.93418013    -0.022696276    11585.238    
Loop time of 17.2653 on 1 procs for 1000000 steps with 256 atoms

Performance: 25021276.478 tau/day, 57919.621 timesteps/s
99.7% CPU use with 1 MPI tasks x no OpenMP threads

MPI task timing breakdown:
Section |  min time  |  avg time  |  max time  |%varavg| %total
---------------------------------------------------------------
Pair    | 9.756      | 9.756      | 9.756      |   0.0 | 56.51
Neigh   | 4.3225     | 4.3225     | 4.3225     |   0.0 | 25.04
Comm    | 1.0846     | 1.0846     | 1.0846     |   0.0 |  6.28
Output  | 0.0088383  | 0.0088383  | 0.0088383  |   0.0 |  0.05
Modify  | 1.7462     | 1.7462     | 1.7462     |   0.0 | 10.11
Other   |            | 0.3471     |            |       |  2.01

Nlocal:            256 ave         256 max         256 min
Histogram: 1 0 0 0 0 0 0 0 0 0
Nghost:            225 ave         225 max         225 min
Histogram: 1 0 0 0 0 0 0 0 0 0
Neighs:           1191 ave        1191 max        1191 min
Histogram: 1 0 0 0 0 0 0 0 0 0

Total # of neighbors = 1191
Ave neighs/atom = 4.6523438
Neighbor list builds = 50000
Dangerous builds not checked
Total wall time: 0:00:17
