#Initial Configuration

256 atoms
1 atom types

-11.31370849898476039041 11.31370849898476039041 xlo xhi
-11.31370849898476039041 11.31370849898476039041 ylo yhi
-11.31370849898476039041 11.31370849898476039041 zlo zhi

Masses

1 1.0

Atoms

     1     1      3.172878	-0.363675	-1.748645
     2     1      -0.935045	0.101398	-1.966765 
     3     1      -2.519823	1.691798	-0.722861 
     4     1      -3.145839	0.429119	0.902537  
     5     1      3.901526	-2.465222	-1.323441 
     6     1      3.272366	1.894804	2.702277  
     7     1      -2.299655	2.588410	-1.463793 
     8     1      3.054304	2.062345	-2.130144 
     9     1      0.894895	2.718217	0.466060  
    10     1      1.789050	1.652997	-1.371236 
    11     1      3.290780	2.224308	0.248686  
    12     1      -2.107592	2.471017	2.131166  
    13     1      -0.692754	-0.934291	-3.284165 
    14     1      1.542065	0.958542	-0.196018 
    15     1      -3.504319	-2.795495	2.519832  
    16     1      0.946215	3.798969	-3.373277 
    17     1      0.677480	1.468376	2.715953  
    18     1      2.129948	3.395962	-2.845175 
    19     1      2.821219	-0.433351	0.950414  
    20     1      2.939095	0.203374	-3.008862 
    21     1      -1.730943	0.859214	-2.913727 
    22     1      0.172234	-0.834350	2.900462  
    23     1      1.571421	2.836090	3.970987  
    24     1      0.509515	2.395974	-0.851296 
    25     1      1.662778	0.486776	1.526675  
    26     1      0.917557	2.987257	2.628965  
    27     1      -0.137333	-1.829459	-2.317983 
    28     1      0.792455	-0.988129	-2.901855 
    29     1      -0.898327	2.030719	2.070423  
    30     1      0.947308	-2.587761	0.078768  
    31     1      -0.925254	0.685900	3.924135  
    32     1      3.404584	-1.215453	1.685921  
    33     1      -1.749819	-0.368881	-1.532225 
    34     1      3.197686	1.300945	3.674426  
    35     1      0.128441	2.818067	-2.583176 
    36     1      -1.916504	3.055234	-0.313685 
    37     1      0.827449	1.247565	-1.153781 
    38     1      -3.724894	-2.140663	1.728482  
    39     1      0.114650	3.289630	-3.555780 
    40     1      -1.871399	0.795360	-1.296921 
    41     1      0.062654	-0.283859	-0.767474 
    42     1      1.970815	-0.520019	1.631600  
    43     1      -0.762921	-1.030041	-0.506696 
    44     1      -0.325530	0.047295	-3.505156 
    45     1      -3.092882	-0.517997	1.203983  
    46     1      -1.961519	-3.927391	0.423395  
    47     1      1.791194	-1.720566	3.243485  
    48     1      -3.012309	3.322637	-2.465699 
    49     1      -3.515769	2.722484	-3.450012 
    50     1      -1.333670	-1.701163	0.535788  
    51     1      3.277636	2.517520	-3.958595 
    52     1      -3.276061	-1.086123	-2.597091 
    53     1      2.886618	3.231527	2.247543  
    54     1      -0.684423	1.544503	-1.290842 
    55     1      1.493360	1.961486	2.838504  
    56     1      0.495231	1.357166	-3.099645 
    57     1      0.940469	-2.047082	-2.988401 
    58     1      3.601950	-0.481689	-3.269609 
    59     1      -0.080237	0.840659	-1.664393 
    60     1      -0.198603	1.403170	3.449397  
    61     1      -2.532176	0.702621	-2.178860 
    62     1      -2.185423	-0.008581	-3.672564 
    63     1      1.941757	-0.117234	-1.102453 
    64     1      -1.611118	-0.765950	0.841425  
    65     1      -1.422400	-0.278428	-0.447755 
    66     1      2.357162	2.984551	3.196060  
    67     1      0.122022	-3.811585	2.934371  
    68     1      2.400432	3.469316	-1.258487 
    69     1      -0.098920	-2.322238	-3.278596 
    70     1      2.699569	2.275835	-3.174238 
    71     1      0.497123	3.344359	-1.626696 
    72     1      2.097254	-0.256683	2.634902  
    73     1      -0.846667	-3.770882	-2.615266 
    74     1      -3.562805	0.144772	1.922438  
    75     1      2.675098	0.580505	-1.754569 
    76     1      -3.797981	1.995567	3.854963  
    77     1      -2.236716	-3.160488	-3.628297 
    78     1      -1.056990	-0.851634	2.598637  
    79     1      -2.987698	-1.511587	3.772210  
    80     1      -2.999728	2.975386	3.082184  
    81     1      3.873602	1.183874	-2.734685 
    82     1      -1.665112	3.834320	1.989105  
    83     1      -2.965308	-0.699918	2.766322  
    84     1      0.591614	0.656654	1.585925  
    85     1      0.460024	-1.676569	-1.447064 
    86     1      -0.730339	-1.458960	-1.500403 
    87     1      -1.773777	1.915734	-3.947090 
    88     1      -3.392369	3.382179	0.973102  
    89     1      -2.693718	-3.534726	-2.617397 
    90     1      -2.183860	0.105971	1.056966  
    91     1      2.469405	-2.635187	2.760612  
    92     1      0.081300	-3.641627	-3.417870 
    93     1      2.005072	-1.242283	0.190052  
    94     1      1.541485	1.225659	-2.389111 
    95     1      3.868420	-0.658911	2.662599  
    96     1      2.530715	-3.374604	0.093119  
    97     1      0.058880	-0.862960	-3.993863 
    98     1      -1.927462	3.737736	-3.094300 
    99     1      -0.474021	-0.922178	1.259734  
   100     1      -1.681387	2.863398	-2.336134 
   101     1      -3.322050	3.913685	2.831220  
   102     1      2.325590	-2.322917	-2.469024 
   103     1      0.414364	-1.119169	0.034550  
   104     1      1.605387	-2.075156	2.289659  
   105     1      -2.360204	1.380158	0.975151  
   106     1      -3.373757	-0.839592	-0.991599 
   107     1      -3.008080	0.490519	-1.016006 
   108     1      -2.554782	1.750602	-1.820400 
   109     1      -1.558378	0.663424	0.013422  
   110     1      -2.001928	-2.359637	-0.278307 
   111     1      -1.604710	-0.099487	-2.646850 
   112     1      0.439982	-3.599545	1.105664  
   113     1      -0.806330	0.023352	2.129437  
   114     1      -1.770408	-2.811435	0.741292  
   115     1      1.401829	-2.957452	-3.697057 
   116     1      2.386278	-1.510580	2.016333  
   117     1      -3.131149	-0.083650	-3.436221 
   118     1      2.390674	-1.309994	-3.677336 
   119     1      3.507610	-2.427603	2.534136  
   120     1      -3.930101	-0.356329	-0.151335 
   121     1      -0.213083	3.290585	3.451371  
   122     1      -1.329685	-3.076662	-0.281302 
   123     1      -3.120335	1.584167	2.576242  
   124     1      3.041137	-1.434987	3.033972  
   125     1      1.879060	-2.530886	-0.381433 
   126     1      2.579604	3.728164	-3.753115 
   127     1      1.803288	3.000058	1.822583  
   128     1      3.597666	-3.149618	-0.460066 
   129     1      -1.024511	3.705832	-0.063971 
   130     1      -0.799437	-2.659565	1.188858  
   131     1      0.947533	-2.402239	3.448400  
   132     1      2.023379	2.491854	-2.081311 
   133     1      3.472349	1.140206	0.386186  
   134     1      0.764467	-1.567786	1.153349  
   135     1      -0.316487	-3.381919	0.379899  
   136     1      3.535574	-3.866151	0.681498  
   137     1      -2.636153	-3.342750	3.462880  
   138     1      -3.270031	-2.221406	-3.466021 
   139     1      -0.592029	3.844463	1.096345  
   140     1      -3.321725	-3.748860	0.485657  
   141     1      -2.380313	2.076691	3.137441  
   142     1      -3.559517	-2.492024	-2.389499 
   143     1      2.956370	-1.172307	-1.160530 
   144     1      1.160978	-3.239678	2.511079  
   145     1      -1.652072	-3.461093	-1.834713 
   146     1      -2.941429	-3.442340	1.396979  
   147     1      1.880897	1.326433	2.077668  
   148     1      2.445924	3.578284	0.967248  
   149     1      1.100648	-3.719128	-0.258345 
   150     1      0.302943	0.761289	-3.911873 
   151     1      3.833639	-3.562965	-2.118900 
   152     1      0.515278	1.859760	-1.863537 
   153     1      -1.461922	0.567796	2.937747  
   154     1      -3.743890	2.391420	1.832412  
   155     1      -0.047021	0.321262	3.110867  
   156     1      -1.060776	1.167249	1.427301  
   157     1      1.893215	-3.710267	-2.127443 
   158     1      -0.602362	-1.419726	3.577618  
   159     1      -0.752602	3.189852	-3.058689 
   160     1      1.254305	2.508957	-3.057642 
   161     1      3.103249	-3.683439	1.752318  
   162     1      -2.423372	-1.105626	-3.464701 
   163     1      -2.705003	-1.321954	0.527515  
   164     1      -2.379205	1.153118	3.507444  
   165     1      3.635712	3.016932	3.239892  
   166     1      -0.013912	2.375976	2.741133  
   167     1      1.532412	-3.832202	1.449879  
   168     1      2.910735	-2.397225	1.595139  
   169     1      -3.352526	2.409125	-1.655469 
   170     1      1.642075	-1.829834	0.899833  
   171     1      -1.454410	-2.585376	-3.351122 
   172     1      2.823267	-2.518969	-1.023248 
   173     1      1.077503	3.811500	3.631854  
   174     1      -0.040193	3.451396	0.169203  
   175     1      -2.080266	-0.523992	2.114598  
   176     1      -0.647147	-3.546949	2.200491  
   177     1      2.771664	-3.438431	-1.255006 
   178     1      -0.065561	0.642058	0.400171  
   179     1      -0.016844	-2.178141	-0.753118 
   180     1      -2.785140	-3.268278	-1.558342 
   181     1      1.127651	-0.412115	-1.447678 
   182     1      -2.784146	3.566962	-0.172594 
   183     1      0.234431	-3.970432	-2.400421 
   184     1      -1.649308	-2.462811	3.144830  
   185     1      -3.976202	1.425226	-1.367897 
   186     1      2.488498	-2.205124	0.393341  
   187     1      2.800225	0.176148	1.760529  
   188     1      -2.554094	-1.824717	-1.352044 
   189     1      -0.020810	-2.656078	3.256029  
   190     1      -2.552915	2.799454	0.974636  
   191     1      0.412478	3.363195	1.374600  
   192     1      1.998232	1.925192	1.227863  
   193     1      2.479011	-2.396621	-3.585092 
   194     1      -2.066673	-1.409771	3.119519  
   195     1      -2.621661	3.344338	3.924898  
   196     1      -2.505287	-1.051255	-0.519123 
   197     1      -1.099903	2.636331	-0.958240 
   198     1      0.600161	2.412630	3.652855  
   199     1      2.967532	1.085490	1.382219  
   200     1      -0.787520	0.577752	-0.863629 
   201     1      -2.685063	2.229145	-3.902596 
   202     1      -0.888990	1.702815	-3.456520 
   203     1      1.161008	-1.761665	-0.487858 
   204     1      3.513940	2.225483	-0.839189 
   205     1      -1.047297	1.975048	3.049026  
   206     1      -0.259646	-1.811772	0.641503  
   207     1      -3.865319	-3.994091	-3.990296 
   208     1      0.926109	0.104314	0.296164  
   209     1      -3.819266	-0.989875	-3.911227 
   210     1      -1.228179	-2.326474	-0.965583 
   211     1      -0.607009	3.122127	2.250689  
   212     1      -2.747247	-0.505151	-1.907284 
   213     1      2.875367	-1.373034	0.842367  
   214     1      -0.473095	-1.978044	2.105021  
   215     1      -3.846538	-1.262098	0.467856  
   216     1      -2.525326	-1.896204	-2.698163 
   217     1      -2.083926	1.482233	2.398459  
   218     1      2.849655	1.299738	-0.966095 
   219     1      3.698337	0.168590	1.230821  
   220     1      3.762971	3.178634	-0.215289 
   221     1      1.713645	-1.530452	-2.920340 
   222     1      -1.241343	1.597635	-2.272570 
   223     1      -2.185145	-2.598591	2.124177  
   224     1      1.132698	0.264405	3.181718  
   225     1      -1.621748	2.737806	3.276277  
   226     1      -0.664023	0.751230	-2.776139 
   227     1      -1.854144	-1.056728	-2.385580 
   228     1      1.881435	-1.159653	-1.158795 
   229     1      -2.956593	3.419485	2.021595  
   230     1      2.483306	-3.310138	3.712554  
   231     1      1.521978	-2.315090	-1.432771 
   232     1      -2.450965	0.242713	0.024533  
   233     1      -1.054473	1.665762	-0.007356 
   234     1      3.692605	-3.269727	3.511317  
   235     1      -0.463582	2.469709	-3.895315 
   236     1      -2.586499	0.283524	2.551085  
   237     1      3.124218	-1.527016	-2.446365 
   238     1      3.230730	-1.690632	-0.180105 
   239     1      -3.789842	1.034250	-0.279683 
   240     1      -3.681209	-0.136586	-2.195689 
   241     1      0.425537	-0.161196	-2.239501 
   242     1      0.647106	2.210815	1.949544  
   243     1      1.385034	1.799781	-3.793936 
   244     1      -2.701671	-1.425062	1.637461  
   245     1      -0.321530	-0.475754	0.334102  
   246     1      -2.254744	-3.559714	-0.606730 
   247     1      1.843875	-0.071514	0.746388  
   248     1      -3.475439	2.220524	0.151331  
   249     1      1.217490	3.301486	-2.426444 
   250     1      -3.889678	-2.550836	0.629375  
   251     1      3.582114	-2.345041	-3.509024 
   252     1      3.630345	0.522921	-0.989382 
   253     1      -1.722473	-1.588359	1.929952  
   254     1      0.183094	-3.733342	-0.782192 
   255     1      3.966930	3.637030	-1.305507 
   256     1      -2.641843	1.831124	-2.984203 
