LAMMPS (23 Jun 2022 - Update 2)
Reading data file ...
  orthogonal box = (-11.313708 -11.313708 -11.313708) to (11.313708 11.313708 11.313708)
  1 by 1 by 2 MPI processor grid
  reading atoms ...
  256 atoms
  read_data CPU = 0.009 seconds
Generated 0 of 0 mixed pair_coeff terms from geometric mixing rule
Neighbor list info ...
  update every 20 steps, delay 0 steps, check no
  max neighbors/atom: 2000, page size: 100000
  master list distance cutoff = 2.8
  ghost atom cutoff = 2.8
  binsize = 1.4, bins = 17 17 17
  1 neighbor lists, perpetual/occasional/extra = 1 0 0
  (1) pair lj/cut, perpetual
      attributes: half, newton on
      pair build: half/bin/atomonly/newton
      stencil: half/bin/3d
      bin: standard
Setting up Verlet run ...
  Unit style    : lj
  Current step  : 0
  Time step     : 0.005
Per MPI rank memory allocation (min/avg/max) = 2.584 | 2.584 | 2.584 Mbytes
   Step          Temp          Press          PotEng         KinEng         TotEng         Volume    
         0   1.5            0.035308173   -2.3642772      2.2412109     -0.12306624     11585.238    
      1000   0.95497032     0.0075496439  -1.459028       1.42686       -0.032168039    11585.238    
      2000   0.87384109     0.014685203   -1.3285544      1.3056415     -0.022912904    11585.238    
      3000   0.79324108     0.0096844492  -1.2016591      1.1852137     -0.016445404    11585.238    
      4000   0.82343757     0.0041143582  -1.244241       1.2303315     -0.013909445    11585.238    
      5000   0.83486533     0.0092645867  -1.264937       1.2474062     -0.017530838    11585.238    
      6000   0.78399474     0.008842403   -1.1843307      1.1713984     -0.012932296    11585.238    
      7000   0.79258476     0.014217625   -1.2024323      1.1842331     -0.01819925     11585.238    
      8000   0.76110144     0.011493898   -1.150962       1.1371926     -0.013769407    11585.238    
      9000   0.72413795     0.010340808   -1.0899577      1.0819639     -0.0079937563   11585.238    
     10000   0.73515324     0.007625889   -1.1066945      1.0984223     -0.0082721871   11585.238    
     11000   0.77087339     0.0091914822  -1.165909       1.1517932     -0.014115759    11585.238    
     12000   0.72571637     0.014679024   -1.0922571      1.0843223     -0.0079347877   11585.238    
     13000   0.74474633     0.010326709   -1.1255887      1.1127557     -0.012832967    11585.238    
     14000   0.69908978     0.001781458   -1.05007        1.0445384     -0.0055315465   11585.238    
     15000   0.68801626     0.0081391878  -1.0329936      1.027993      -0.0050005498   11585.238    
     16000   0.70384879     0.013769941   -1.0582433      1.0516491     -0.0065941925   11585.238    
     17000   0.70159179     0.0045519351  -1.0538401      1.0482768     -0.0055632641   11585.238    
     18000   0.73562314     0.0091350153  -1.1115372      1.0991244     -0.012412831    11585.238    
     19000   0.72634959     0.011000562   -1.0964535      1.0852684     -0.011185091    11585.238    
     20000   0.73450105     0.013223524   -1.1063561      1.0974479     -0.0089082374   11585.238    
     21000   0.70295895     0.011965083   -1.0585658      1.0503195     -0.0082462549   11585.238    
     22000   0.71095223     0.0087934423  -1.0712932      1.0622626     -0.0090306286   11585.238    
     23000   0.7054597      0.010804844   -1.0609973      1.054056      -0.0069413151   11585.238    
     24000   0.72181042     0.016924648   -1.0883538      1.0784863     -0.0098675179   11585.238    
     25000   0.69852716     0.0058684634  -1.0528845      1.0436978     -0.0091866595   11585.238    
     26000   0.68875244     0.0069205919  -1.0371601      1.029093      -0.0080671358   11585.238    
     27000   0.67170497     0.0055087682  -1.0096635      1.0036217     -0.006041816    11585.238    
     28000   0.6872937      0.010619705   -1.03722        1.0269134     -0.010306584    11585.238    
     29000   0.6581109      0.0096754143  -0.98992496     0.98331023    -0.0066147289   11585.238    
     30000   0.66221615     0.0078920185  -0.99442399     0.98944405    -0.0049799447   11585.238    
     31000   0.69955578     0.0095805676  -1.0554196      1.0452347     -0.010184912    11585.238    
     32000   0.68004241     0.0037317981  -1.0189126      1.016079      -0.0028336507   11585.238    
     33000   0.66391371     0.008368457   -0.99587149     0.99198044    -0.0038910494   11585.238    
     34000   0.67818097     0.00208608    -1.0174713      1.0132977     -0.0041735995   11585.238    
     35000   0.70856801     0.011885457   -1.0650526      1.0587002     -0.0063523921   11585.238    
     36000   0.70478677     0.0053270079  -1.0590008      1.0530505     -0.005950224    11585.238    
     37000   0.67500116     0.014505453   -1.0123302      1.0085467     -0.0037835513   11585.238    
     38000   0.65984294     0.0094090947  -0.9914712      0.98589815    -0.0055730572   11585.238    
     39000   0.67798591     0.0076919024  -1.0188272      1.0130063     -0.0058209596   11585.238    
     40000   0.70356798     0.011874323   -1.060435       1.0512295     -0.0092054994   11585.238    
     41000   0.68906882     0.0062978052  -1.0349331      1.0295657     -0.0053673794   11585.238    
     42000   0.684226       0.0078451354  -1.0312215      1.0223299     -0.0088916725   11585.238    
     43000   0.70696351     0.0060863517  -1.0649222      1.0563029     -0.0086193171   11585.238    
     44000   0.67234225     0.011349105   -1.0103504      1.0045739     -0.0057765552   11585.238    
     45000   0.69695461     0.0069559343  -1.0488167      1.0413482     -0.0074684613   11585.238    
     46000   0.72004836     0.01629806    -1.0862054      1.0758535     -0.010351846    11585.238    
     47000   0.69051583     0.01467861    -1.0418348      1.0317278     -0.010107019    11585.238    
     48000   0.71088526     0.0053447782  -1.0721464      1.0621626     -0.0099838849   11585.238    
     49000   0.71037596     0.0090654461  -1.0706265      1.0614016     -0.0092248891   11585.238    
     50000   0.70105572     0.01311418    -1.0570527      1.0474758     -0.0095769065   11585.238    
     51000   0.6468008      0.019909704   -0.96984593     0.96641135    -0.0034345779   11585.238    
     52000   0.63503139     0.0078271987  -0.95121593     0.9488262     -0.0023897233   11585.238    
     53000   0.63049643     0.0066635667  -0.94360521     0.94205033    -0.0015548739   11585.238    
     54000   0.6858181      0.0078685355  -1.0309506      1.0247087     -0.0062419554   11585.238    
     55000   0.67495307     0.015425881   -1.0161488      1.0084748     -0.0076739657   11585.238    
     56000   0.68847152     0.0084512538  -1.035345       1.0286733     -0.0066717501   11585.238    
     57000   0.67235215     0.017376997   -1.0121992      1.0045887     -0.0076105669   11585.238    
     58000   0.67603943     0.0045782301  -1.016287       1.010098      -0.0061890062   11585.238    
     59000   0.71801536     0.0074997131  -1.0812501      1.0728159     -0.0084342152   11585.238    
     60000   0.6952756      0.0082496026  -1.0474082      1.0388395     -0.0085686734   11585.238    
     61000   0.7024974      0.010397559   -1.0586128      1.0496299     -0.0089828848   11585.238    
     62000   0.69249372     0.0067206719  -1.0414532      1.034683      -0.0067702442   11585.238    
     63000   0.68318452     0.010305485   -1.0251904      1.0207737     -0.0044166971   11585.238    
     64000   0.7031304      0.0096314313  -1.0609418      1.0505757     -0.01036607     11585.238    
     65000   0.67107759     0.0062415073  -1.0054207      1.0026843     -0.0027364284   11585.238    
     66000   0.696658       0.018327243   -1.051826       1.040905      -0.010920959    11585.238    
     67000   0.66294625     0.011621693   -0.99787039     0.99053493    -0.0073354586   11585.238    
     68000   0.66396882     0.012734397   -0.99823173     0.99206278    -0.0061689534   11585.238    
     69000   0.68026282     0.010329238   -1.0239293      1.0164083     -0.0075210143   11585.238    
     70000   0.66863405     0.0025767856  -1.0007481      0.9990333     -0.0017147542   11585.238    
     71000   0.64335424     0.0078035239  -0.96382985     0.96126171    -0.0025681391   11585.238    
     72000   0.6890032      0.010466069   -1.0343502      1.0294677     -0.0048825482   11585.238    
     73000   0.70308167     0.012169745   -1.0602842      1.0505029     -0.009781293    11585.238    
     74000   0.69057562     0.01241673    -1.0421795      1.0318171     -0.010362391    11585.238    
     75000   0.69606222     0.0096665989  -1.0476495      1.0400148     -0.0076346378   11585.238    
     76000   0.66902058     0.011113781   -1.0028261      0.99961083    -0.0032152592   11585.238    
     77000   0.74365968     0.010011601   -1.1231324      1.1111321     -0.012000269    11585.238    
     78000   0.70982589     0.012159344   -1.0717277      1.0605797     -0.011148026    11585.238    
     79000   0.71220047     0.0062397391  -1.0740586      1.0641277     -0.009930893    11585.238    
     80000   0.73745106     0.0047170876  -1.1131114      1.1018556     -0.011255765    11585.238    
     81000   0.69141959     0.0092196887  -1.0399912      1.0330781     -0.0069131234   11585.238    
     82000   0.70092092     0.0076918444  -1.0574835      1.0472744     -0.010209055    11585.238    
     83000   0.67425507     0.0092297583  -1.0131316      1.0074319     -0.0056997403   11585.238    
     84000   0.65115775     0.010033346   -0.97847228     0.97292125    -0.0055510253   11585.238    
     85000   0.69815638     0.013345005   -1.0523761      1.0431438     -0.0092323394   11585.238    
     86000   0.67096572     0.011259515   -1.0100843      1.0025171     -0.0075671399   11585.238    
     87000   0.71185981     0.0090056726  -1.0745457      1.0636187     -0.010927027    11585.238    
     88000   0.76248428     0.01200706    -1.1540163      1.1392587     -0.014757527    11585.238    
     89000   0.7018201      0.012760136   -1.0598312      1.0486179     -0.011213279    11585.238    
     90000   0.7063954      0.009416138   -1.065796       1.0554541     -0.010341958    11585.238    
     91000   0.69142998     0.0046460178  -1.0445078      1.0330936     -0.011414172    11585.238    
     92000   0.72460347     0.011269941   -1.0935644      1.0826595     -0.010904938    11585.238    
     93000   0.67950768     0.016974237   -1.0228539      1.01528       -0.0075738679   11585.238    
     94000   0.7116839      0.013913379   -1.0746154      1.0633558     -0.011259607    11585.238    
     95000   0.74148726     0.0095862103  -1.1184286      1.1078862     -0.010542376    11585.238    
     96000   0.73942098     0.0072073268  -1.1167764      1.1047989     -0.011977475    11585.238    
     97000   0.68050678     0.004719894   -1.0261331      1.0167728     -0.0093603126   11585.238    
     98000   0.67984787     0.01026138    -1.0254673      1.0157883     -0.0096789927   11585.238    
     99000   0.73769353     0.01023115    -1.1168491      1.1022179     -0.014631183    11585.238    
    100000   0.72614142     0.011457728   -1.0986829      1.0849574     -0.013725516    11585.238    
    101000   0.77014051     0.014036768   -1.1694676      1.1506982     -0.018769348    11585.238    
    102000   0.7160185      0.0067724207  -1.0824908      1.0698323     -0.012658435    11585.238    
    103000   0.71907827     0.012803339   -1.088162       1.0744041     -0.013757911    11585.238    
    104000   0.71520306     0.010292746   -1.0838745      1.0686139     -0.015260544    11585.238    
    105000   0.72640648     0.012089585   -1.0984847      1.0853534     -0.013131242    11585.238    
    106000   0.69875318     0.016016593   -1.0571396      1.0440355     -0.013104126    11585.238    
    107000   0.71475432     0.0046631339  -1.0809761      1.0679435     -0.013032675    11585.238    
    108000   0.67607547     0.012939914   -1.0178152      1.0101518     -0.0076633572   11585.238    
    109000   0.67694157     0.010121755   -1.0169773      1.0114459     -0.0055314328   11585.238    
    110000   0.67896738     0.0081410313  -1.0192608      1.0144727     -0.0047880628   11585.238    
    111000   0.63224466     0.011894874   -0.94909165     0.94466243    -0.0044292217   11585.238    
    112000   0.6675612      0.0086102194  -1.0043196      0.99743031    -0.0068892938   11585.238    
    113000   0.66869208     0.0098046808  -1.0044792      0.99912       -0.0053592082   11585.238    
    114000   0.67502227     0.007164956   -1.0141552      1.0085782     -0.0055770206   11585.238    
    115000   0.66266578     0.010776523   -0.99371722     0.99011586    -0.0036013552   11585.238    
    116000   0.6842853      0.011601233   -1.0314235      1.0224185     -0.0090050698   11585.238    
    117000   0.6727486      0.011733962   -1.0109009      1.005181      -0.0057198375   11585.238    
    118000   0.70028615     0.0092046028  -1.0587233      1.046326      -0.012397266    11585.238    
    119000   0.66427772     0.0072680701  -1.0001112      0.99252433    -0.0075869098   11585.238    
    120000   0.69867852     0.0091042031  -1.0551597      1.043924      -0.011235767    11585.238    
    121000   0.68891143     0.010897522   -1.0368345      1.0293306     -0.0075039366   11585.238    
    122000   0.71125569     0.010265307   -1.0742481      1.062716      -0.01153204     11585.238    
    123000   0.68945475     0.011733696   -1.0392034      1.0301424     -0.0090610318   11585.238    
    124000   0.70412541     0.0060239483  -1.0637583      1.0520624     -0.011695901    11585.238    
    125000   0.71390939     0.0073783266  -1.078909       1.066681      -0.012227999    11585.238    
    126000   0.67059627     0.01457938    -1.0087594      1.0019651     -0.0067942453   11585.238    
    127000   0.6982701      0.012115981   -1.052046       1.0433137     -0.0087322512   11585.238    
    128000   0.70630163     0.013364609   -1.0634008      1.055314      -0.0080868412   11585.238    
    129000   0.68191739     0.011635161   -1.0294168      1.0188805     -0.010536334    11585.238    
    130000   0.67627818     0.0075157598  -1.0169883      1.0104547     -0.0065335482   11585.238    
    131000   0.71227152     0.0066696956  -1.0737241      1.0642338     -0.009490293    11585.238    
    132000   0.64803141     0.014837586   -0.97252586     0.96825006    -0.0042758023   11585.238    
    133000   0.67740936     0.0081367513  -1.0176184      1.0121448     -0.0054735958   11585.238    
    134000   0.68324652     0.0091190395  -1.0278289      1.0208664     -0.0069625558   11585.238    
    135000   0.69974039     0.012725082   -1.0560761      1.0455105     -0.010565602    11585.238    
    136000   0.68592915     0.010514209   -1.0322375      1.0248746     -0.0073629154   11585.238    
    137000   0.7250041      0.012101816   -1.0952906      1.0832581     -0.012032571    11585.238    
    138000   0.68580263     0.011788892   -1.0329249      1.0246856     -0.0082393374   11585.238    
    139000   0.65663755     0.008194211   -0.98826875     0.98110884    -0.0071599145   11585.238    
    140000   0.6807035      0.003870525   -1.0246379      1.0170668     -0.0075711391   11585.238    
    141000   0.65545819     0.01036982    -0.98382086     0.97934672    -0.0044741439   11585.238    
    142000   0.66299177     0.0088411213  -0.99537846     0.99060294    -0.0047755271   11585.238    
    143000   0.6870735      0.0052410448  -1.0324676      1.0265844     -0.0058831856   11585.238    
    144000   0.64434671     0.0045507692  -0.96577098     0.9627446     -0.003026378    11585.238    
    145000   0.62719513     0.006339036   -0.93952435     0.93711773    -0.0024066173   11585.238    
    146000   0.62936056     0.0087457114  -0.9404361      0.94035318    -8.2926897e-05  11585.238    
    147000   0.63773412     0.010466184   -0.95387545     0.95286446    -0.001010987    11585.238    
    148000   0.6072352      0.0031330717  -0.90411559     0.90729478     0.0031791891   11585.238    
    149000   0.63570379     0.0093251158  -0.94996053     0.94983086    -0.00012966498  11585.238    
    150000   0.63341175     0.0026959714  -0.94542742     0.94640623     0.00097880333  11585.238    
    151000   0.63455257     0.00822208    -0.94744404     0.94811077     0.00066672988  11585.238    
    152000   0.58608379     0.010500499   -0.87491444     0.8756916      0.00077716713  11585.238    
    153000   0.63320094     0.010138765   -0.94628223     0.94609125    -0.00019098687  11585.238    
    154000   0.60088998     0.0077745999  -0.8927547      0.89781413     0.0050594323   11585.238    
    155000   0.62081645     0.0086240775  -0.92623222     0.92758709     0.0013548682   11585.238    
    156000   0.56406687     0.0047113062  -0.83592108     0.84279523     0.0068741528   11585.238    
    157000   0.60841076     0.0091653214  -0.90554597     0.90905124     0.0035052649   11585.238    
    158000   0.58094384     0.0086283595  -0.86318008     0.8680118      0.0048317176   11585.238    
    159000   0.5901323      0.0096643356  -0.87907112     0.88174064     0.0026695203   11585.238    
    160000   0.60430218     0.0049988333  -0.89976023     0.90291244     0.0031522137   11585.238    
    161000   0.59698149     0.0039962568  -0.88873793     0.8919743      0.0032363752   11585.238    
    162000   0.67136619     0.0069661335  -1.0064545      1.0031155     -0.0033390189   11585.238    
    163000   0.65861757     0.0079139547  -0.9871963      0.98406727    -0.0031290323   11585.238    
    164000   0.61000017     0.0066605213  -0.91133126     0.91142604     9.4774601e-05  11585.238    
    165000   0.61457509     0.0074124499  -0.91958907     0.9182616     -0.001327467    11585.238    
    166000   0.66395414     0.0036332365  -0.99568928     0.99204086    -0.0036484167   11585.238    
    167000   0.68561657     0.0079362785  -1.0318514      1.0244076     -0.0074438432   11585.238    
    168000   0.64284912     0.0090074152  -0.96624958     0.96050699    -0.0057425962   11585.238    
    169000   0.61340182     0.0097133946  -0.91679389     0.91650859    -0.00028530056  11585.238    
    170000   0.6319214      0.007141164   -0.94670011     0.94417943    -0.0025206766   11585.238    
    171000   0.6710383      0.0099332564  -1.0075056      1.0026256     -0.0048800612   11585.238    
    172000   0.64474597     0.011529863   -0.96425455     0.96334115    -0.00091340046  11585.238    
    173000   0.65799065     0.00825958    -0.98666269     0.98313056    -0.003532131    11585.238    
    174000   0.6531345      0.0082715057  -0.98191546     0.9758748     -0.0060406601   11585.238    
    175000   0.65328687     0.0047887995  -0.98042363     0.97610245    -0.0043211845   11585.238    
    176000   0.67695335     0.0085933626  -1.0180298      1.0114635     -0.0065663109   11585.238    
    177000   0.61328004     0.0097830963  -0.91810176     0.91632662    -0.0017751401   11585.238    
    178000   0.66001555     0.0086995653  -0.98874443     0.98615605    -0.0025883779   11585.238    
    179000   0.63807594     0.010728492   -0.95603219     0.95337518    -0.0026570046   11585.238    
    180000   0.66924685     0.0067557288  -1.007316       0.9999489     -0.0073670534   11585.238    
    181000   0.66019407     0.0081322487  -0.99324878     0.98642278    -0.0068260071   11585.238    
    182000   0.68182438     0.014267189   -1.0273908      1.0187415     -0.0086492639   11585.238    
    183000   0.69776647     0.011421334   -1.0527907      1.0425612     -0.010229483    11585.238    
    184000   0.67230914     0.012231258   -1.0096539      1.0045244     -0.0051294868   11585.238    
    185000   0.67598483     0.010261035   -1.0163295      1.0100164     -0.0063130625   11585.238    
    186000   0.6673238      0.003353809   -1.0039456      0.99707559    -0.0068699942   11585.238    
    187000   0.66165568     0.0096028975  -0.99489893     0.98860663    -0.0062923013   11585.238    
    188000   0.63176709     0.0060804979  -0.95068266     0.94394888    -0.0067337798   11585.238    
    189000   0.68431044     0.010783504   -1.03462        1.022456      -0.012163967    11585.238    
    190000   0.66861323     0.013676036   -1.0058128      0.99900219    -0.0068105686   11585.238    
    191000   0.61542529     0.0071375563  -0.92081178     0.91953193    -0.0012798577   11585.238    
    192000   0.60497201     0.0089275681  -0.90183851     0.90391325     0.0020747396   11585.238    
    193000   0.65052596     0.010858666   -0.972437       0.97197726    -0.00045974196  11585.238    
    194000   0.64605681     0.0083719677  -0.96973454     0.96529972    -0.004434816    11585.238    
    195000   0.64550007     0.01083053    -0.9692143      0.96446788    -0.004746421    11585.238    
    196000   0.62174723     0.009982775   -0.93371601     0.9289778     -0.0047382157   11585.238    
    197000   0.61851        0.0074107558  -0.92712788     0.92414092    -0.0029869565   11585.238    
    198000   0.63630893     0.0060007151  -0.95624431     0.95073503    -0.0055092861   11585.238    
    199000   0.66759751     0.0096135336  -1.0043764      0.99748456    -0.0068918867   11585.238    
    200000   0.68884034     0.0053732388  -1.0362942      1.0292243     -0.0070698428   11585.238    
    201000   0.66666982     0.0093636108  -1.001788       0.99609846    -0.0056895179   11585.238    
    202000   0.68921895     0.0095705986  -1.0403586      1.02979       -0.010568587    11585.238    
    203000   0.68431089     0.0063586687  -1.0318209      1.0224567     -0.009364237    11585.238    
    204000   0.68893153     0.0075060613  -1.0369325      1.0293606     -0.0075718696   11585.238    
    205000   0.66098994     0.01411057    -0.99572614     0.98761192    -0.0081142216   11585.238    
    206000   0.69987605     0.011551413   -1.058173       1.0457132     -0.012459723    11585.238    
    207000   0.6653215      0.0043450371  -1.0026279      0.99408387    -0.0085440103   11585.238    
    208000   0.71688701     0.010042236   -1.0848675      1.07113       -0.013737513    11585.238    
    209000   0.67510696     0.0073227203  -1.0190504      1.0087047     -0.010345705    11585.238    
    210000   0.65583218     0.0073056322  -0.98564759     0.9799055     -0.0057420924   11585.238    
    211000   0.67378606     0.0027047469  -1.0157954      1.0067311     -0.0090643193   11585.238    
    212000   0.66758656     0.012381777   -1.0083922      0.9974682     -0.010923966    11585.238    
    213000   0.67337988     0.0069738357  -1.0177115      1.0061242     -0.011587292    11585.238    
    214000   0.67968399     0.013392199   -1.0255796      1.0155435     -0.010036124    11585.238    
    215000   0.68881686     0.0070693161  -1.0394466      1.0291893     -0.010257343    11585.238    
    216000   0.70390661     0.010281537   -1.0631384      1.0517355     -0.011402946    11585.238    
    217000   0.69206166     0.0097810441  -1.0441751      1.0340374     -0.010137652    11585.238    
    218000   0.70263701     0.016521981   -1.0677567      1.0498385     -0.017918206    11585.238    
    219000   0.69284029     0.0079825625  -1.0488442      1.0352008     -0.013643424    11585.238    
    220000   0.71102293     0.0049531472  -1.0770548      1.0623683     -0.014686561    11585.238    
    221000   0.71545335     0.004379192   -1.0824275      1.0689879     -0.013439541    11585.238    
    222000   0.71861678     0.011585912   -1.0880263      1.0737145     -0.014311733    11585.238    
    223000   0.67517917     0.011284068   -1.0186654      1.0088126     -0.0098527805   11585.238    
    224000   0.69567391     0.0076629875  -1.0525665      1.0394347     -0.013131875    11585.238    
    225000   0.67303433     0.0099624363  -1.0133528      1.0056079     -0.0077448968   11585.238    
    226000   0.67388593     0.010447874   -1.0190395      1.0068803     -0.012159182    11585.238    
    227000   0.72957604     0.0087095402  -1.1052255      1.0900892     -0.015136294    11585.238    
    228000   0.70006462     0.0032784402  -1.0567579      1.045995      -0.010762922    11585.238    
    229000   0.70594493     0.0083361117  -1.0653536      1.054781      -0.01057259     11585.238    
    230000   0.6945198      0.0081548053  -1.0490345      1.0377103     -0.011324284    11585.238    
    231000   0.68853974     0.0080325432  -1.039372       1.0287752     -0.010596818    11585.238    
    232000   0.67628951     0.0095662399  -1.0195374      1.0104716     -0.0090657876   11585.238    
    233000   0.69254437     0.0056429942  -1.0475492      1.0347587     -0.01279049     11585.238    
    234000   0.72103041     0.0074332341  -1.0908206      1.0773208     -0.013499818    11585.238    
    235000   0.69800395     0.01174199    -1.0535144      1.0429161     -0.010598389    11585.238    
    236000   0.67455593     0.0095362608  -1.0188451      1.0078814     -0.010963661    11585.238    
    237000   0.63944026     0.011791437   -0.96358214     0.95541367    -0.0081684708   11585.238    
    238000   0.66944312     0.0057999383  -1.0070209      1.0002422     -0.0067786846   11585.238    
    239000   0.72145249     0.0078125198  -1.09297        1.0779515     -0.015018559    11585.238    
    240000   0.68713275     0.010449674   -1.0359875      1.026673      -0.0093145594   11585.238    
    241000   0.65632388     0.0092617404  -0.98779581     0.98064018    -0.0071556305   11585.238    
    242000   0.64910876     0.006414766   -0.97848716     0.96985977    -0.0086273871   11585.238    
    243000   0.68650133     0.011362731   -1.0364063      1.0257295     -0.010676772    11585.238    
    244000   0.6230498      0.011415826   -0.93627571     0.93092401    -0.0053516931   11585.238    
    245000   0.65421549     0.0053655489  -0.9867109      0.97748995    -0.0092209562   11585.238    
    246000   0.68848374     0.002743725   -1.0363249      1.0286915     -0.0076333531   11585.238    
    247000   0.67522357     0.0038962817  -1.0200616      1.008879      -0.011182629    11585.238    
    248000   0.67225894     0.014224049   -1.0162161      1.0044494     -0.011766734    11585.238    
    249000   0.63404269     0.0058105598  -0.95056027     0.94734894    -0.0032113366   11585.238    
    250000   0.62736967     0.0074444189  -0.94166598     0.93737851    -0.0042874752   11585.238    
    251000   0.63457184     0.0094869237  -0.95524795     0.94813956    -0.0071083905   11585.238    
    252000   0.65172743     0.0061997207  -0.98132439     0.97377243    -0.0075519611   11585.238    
    253000   0.6849098      0.0079866674  -1.0367167      1.0233516     -0.013365145    11585.238    
    254000   0.68322792     0.008467329   -1.0334877      1.0208386     -0.012649091    11585.238    
    255000   0.66355882     0.010132935   -1.0007992      0.99145019    -0.0093489938   11585.238    
    256000   0.66134984     0.0089463871  -0.9980026      0.98814966    -0.0098529375   11585.238    
    257000   0.64453873     0.0037096119  -0.96929056     0.96303151    -0.0062590554   11585.238    
    258000   0.73446376     0.0079473399  -1.1142621      1.0973921     -0.016869945    11585.238    
    259000   0.68898912     0.0081899624  -1.0412774      1.0294466     -0.011830794    11585.238    
    260000   0.66907771     0.0078723698  -1.0097202      0.99969619    -0.010024032    11585.238    
    261000   0.64376954     0.012898244   -0.96962811     0.96188222    -0.0077458876   11585.238    
    262000   0.72289328     0.0092380766  -1.0951973      1.0801042     -0.015093111    11585.238    
    263000   0.66579433     0.0091272204  -1.0032229      0.99479036    -0.0084325123   11585.238    
    264000   0.67926542     0.0091096537  -1.0271885      1.0149181     -0.012270416    11585.238    
    265000   0.66039152     0.0096828231  -0.99633627     0.9867178     -0.0096184679   11585.238    
    266000   0.6931843      0.0076962874  -1.045616       1.0357148     -0.0099011815   11585.238    
    267000   0.64492885     0.012560446   -0.97093775     0.96361439    -0.0073233556   11585.238    
    268000   0.62863362     0.0069592352  -0.94617137     0.93926704    -0.0069043327   11585.238    
    269000   0.62384414     0.0041372042  -0.93520524     0.93211088    -0.0030943559   11585.238    
    270000   0.64479248     0.0071660345  -0.96912706     0.96341064    -0.0057164231   11585.238    
    271000   0.64398792     0.011056586   -0.97195037     0.96220851    -0.0097418543   11585.238    
    272000   0.63871396     0.0056461229  -0.95880195     0.95432847    -0.0044734815   11585.238    
    273000   0.66841325     0.012577035   -1.0060068      0.99870339    -0.0073034567   11585.238    
    274000   0.66322887     0.0097717616  -1.0015991      0.99095719    -0.010641886    11585.238    
    275000   0.66868368     0.011555027   -1.0074906      0.99910745    -0.0083831721   11585.238    
    276000   0.64916499     0.0063497048  -0.97444388     0.96994379    -0.0045000894   11585.238    
    277000   0.67912864     0.0019973717  -1.0219613      1.0147137     -0.007247641    11585.238    
    278000   0.63874141     0.010955315   -0.96324993     0.95436948    -0.0088804432   11585.238    
    279000   0.6646824      0.010345247   -1.0007755      0.99312897    -0.0076465532   11585.238    
    280000   0.66143795     0.0065161069  -0.99537546     0.98828132    -0.0070941413   11585.238    
    281000   0.66144904     0.013055547   -1.0015174      0.98829788    -0.013219557    11585.238    
    282000   0.68664544     0.006946457   -1.0391037      1.0259448     -0.013158804    11585.238    
    283000   0.62328692     0.0052307419  -0.93668461     0.9312783     -0.0054063073   11585.238    
    284000   0.62273009     0.0083601773  -0.9346234      0.93044632    -0.0041770783   11585.238    
    285000   0.61786557     0.011744112   -0.92479896     0.92317806    -0.001620909    11585.238    
    286000   0.60594157     0.0028750349  -0.9074348      0.90536192    -0.0020728833   11585.238    
    287000   0.60482384     0.0040543176  -0.90592608     0.90369186    -0.0022342181   11585.238    
    288000   0.59538324     0.0085602653  -0.89144152     0.88958629    -0.0018552331   11585.238    
    289000   0.60036064     0.0091893581  -0.90210364     0.89702322    -0.0050804139   11585.238    
    290000   0.6408401      0.0063209534  -0.96366586     0.95750523    -0.0061606275   11585.238    
    291000   0.62045732     0.0098928622  -0.93362891     0.92705048    -0.0065784261   11585.238    
    292000   0.59606074     0.0071406079  -0.89643302     0.89059857    -0.0058344502   11585.238    
    293000   0.60855851     0.00077604393 -0.91376445     0.90927199    -0.0044924607   11585.238    
    294000   0.63176932     0.0079928113  -0.95289792     0.94395221    -0.0089457105   11585.238    
    295000   0.59500411     0.0033214735  -0.89340241     0.88901981    -0.0043825984   11585.238    
    296000   0.64350247     0.0054558499  -0.97150395     0.96148319    -0.010020762    11585.238    
    297000   0.65026363     0.0058110564  -0.98204723     0.9715853     -0.010461929    11585.238    
    298000   0.67761202     0.014590514   -1.0244564      1.0124476     -0.012008757    11585.238    
    299000   0.68474413     0.011895482   -1.0371834      1.023104      -0.014079327    11585.238    
    300000   0.66258136     0.010862902   -0.99907632     0.98998973    -0.0090865815   11585.238    
    301000   0.68477919     0.0069170049  -1.0329543      1.0231564     -0.0097978673   11585.238    
    302000   0.69616771     0.0090578657  -1.0520624      1.0401725     -0.011889941    11585.238    
    303000   0.70206641     0.010433302   -1.0615521      1.0489859     -0.012566148    11585.238    
    304000   0.7250987      0.0075011515  -1.0969906      1.0833994     -0.013591202    11585.238    
    305000   0.65476634     0.0078425997  -0.98584647     0.978313      -0.0075334731   11585.238    
    306000   0.66602533     0.0045546621  -1.0027544      0.9951355     -0.0076189147   11585.238    
    307000   0.64275008     0.013091379   -0.96497506     0.96035901    -0.0046160469   11585.238    
    308000   0.66425203     0.018350983   -1.0044455      0.99248594    -0.011959569    11585.238    
    309000   0.65359742     0.017275113   -0.98574402     0.97656646    -0.0091775621   11585.238    
    310000   0.64268565     0.011883684   -0.96730191     0.96026273    -0.0070391799   11585.238    
    311000   0.68771837     0.010636799   -1.0352672      1.027548      -0.0077192749   11585.238    
    312000   0.65555158     0.016538473   -0.98962016     0.97948625    -0.010133905    11585.238    
    313000   0.63946312     0.0098417592  -0.9626945      0.95544782    -0.0072466815   11585.238    
    314000   0.64062416     0.0045918808  -0.96322414     0.95718258    -0.0060415607   11585.238    
    315000   0.66057182     0.0084439526  -0.99509974     0.98698719    -0.0081125476   11585.238    
    316000   0.66334561     0.0064496196  -0.99947262     0.99113163    -0.008340984    11585.238    
    317000   0.67241965     0.009437855   -1.0144069      1.0046895     -0.0097173465   11585.238    
    318000   0.65679773     0.0045509892  -0.98850713     0.98134817    -0.0071589633   11585.238    
    319000   0.67681816     0.0088225396  -1.0191401      1.0112615     -0.0078785467   11585.238    
    320000   0.65224114     0.0067053282  -0.97948192     0.97453999    -0.0049419324   11585.238    
    321000   0.62707316     0.0092073844  -0.94142076     0.93693548    -0.0044852776   11585.238    
    322000   0.64985442     0.0081741011  -0.97923574     0.97097388    -0.0082618527   11585.238    
    323000   0.61240603     0.012616476   -0.92244043     0.91502073    -0.0074196963   11585.238    
    324000   0.68929707     0.0080029677  -1.0387269      1.0299067     -0.0088201808   11585.238    
    325000   0.66666812     0.0084780131  -1.004757       0.99609593    -0.0086610638   11585.238    
    326000   0.69514655     0.0094814034  -1.0528879      1.0386467     -0.014241238    11585.238    
    327000   0.72292925     0.0097485804  -1.0954415      1.080158      -0.015283584    11585.238    
    328000   0.71919469     0.0081299177  -1.08697        1.074578      -0.012392021    11585.238    
    329000   0.7037465      0.0069044423  -1.0645089      1.0514962     -0.013012704    11585.238    
    330000   0.69546068     0.0074376192  -1.0524407      1.0391161     -0.013324602    11585.238    
    331000   0.67680313     0.0053959745  -1.0220855      1.011239      -0.010846477    11585.238    
    332000   0.65729813     0.011578897   -0.99059442     0.98209583    -0.0084985838   11585.238    
    333000   0.72785139     0.011159786   -1.100851       1.0875123     -0.013338677    11585.238    
    334000   0.71951813     0.0042485392  -1.087044       1.0750613     -0.011982731    11585.238    
    335000   0.6851636      0.0045110976  -1.0356674      1.0237308     -0.011936645    11585.238    
    336000   0.70328438     0.01291752    -1.0668212      1.0508058     -0.016015441    11585.238    
    337000   0.78018121     0.012128539   -1.1873191      1.1657004     -0.021618689    11585.238    
    338000   0.71361374     0.012502963   -1.0819672      1.0662393     -0.015727891    11585.238    
    339000   0.70280925     0.0079236064  -1.0648305      1.0500959     -0.014734648    11585.238    
    340000   0.71335918     0.007250802   -1.0812072      1.0658589     -0.015348295    11585.238    
    341000   0.67670226     0.010062481   -1.0256605      1.0110883     -0.014572118    11585.238    
    342000   0.72382115     0.007922105   -1.0996617      1.0814906     -0.018171156    11585.238    
    343000   0.71124384     0.0091787207  -1.0792317      1.0626983     -0.016533364    11585.238    
    344000   0.69226715     0.0095700681  -1.048797       1.0343445     -0.01445255     11585.238    
    345000   0.70535866     0.0087168964  -1.0684007      1.053905      -0.014495716    11585.238    
    346000   0.73124842     0.0094571648  -1.110287       1.092588      -0.017699072    11585.238    
    347000   0.72397445     0.0098531044  -1.1016863      1.0817196     -0.019966651    11585.238    
    348000   0.71719168     0.0050161958  -1.0868752      1.0715852     -0.015289978    11585.238    
    349000   0.69240896     0.011113846   -1.0488695      1.0345564     -0.014313143    11585.238    
    350000   0.71420927     0.011079523   -1.0844443      1.0671291     -0.017315224    11585.238    
    351000   0.75919085     0.012126958   -1.1554751      1.1343379     -0.02113723     11585.238    
    352000   0.73635313     0.0072220786  -1.1156271      1.1002151     -0.015411975    11585.238    
    353000   0.69172947     0.0097106728  -1.046859       1.0335411     -0.013317926    11585.238    
    354000   0.69566121     0.009170461   -1.0543178      1.0394157     -0.014902123    11585.238    
    355000   0.67880954     0.0057429515  -1.0238109      1.0142369     -0.0095739993   11585.238    
    356000   0.70066032     0.015444808   -1.0594064      1.046885      -0.012521303    11585.238    
    357000   0.66019362     0.0077173764  -0.99809708     0.98642211    -0.011674976    11585.238    
    358000   0.68415198     0.0083506643  -1.0346698      1.0222193     -0.012450567    11585.238    
    359000   0.72454696     0.012228413   -1.1026281      1.0825751     -0.020053064    11585.238    
    360000   0.67445867     0.010333857   -1.0231279      1.0077361     -0.015391835    11585.238    
    361000   0.65657624     0.0045963859  -0.99364899     0.98101723    -0.012631756    11585.238    
    362000   0.70556957     0.0079538608  -1.0714804      1.0542202     -0.017260227    11585.238    
    363000   0.7255124      0.0075940755  -1.1034861      1.0840176     -0.019468592    11585.238    
    364000   0.70295149     0.012760679   -1.0685271      1.0503084     -0.018218736    11585.238    
    365000   0.72051187     0.021340459   -1.0972537      1.0765461     -0.020707592    11585.238    
    366000   0.73793896     0.0097750523  -1.119145       1.1025846     -0.01656037     11585.238    
    367000   0.68760169     0.0082563891  -1.0407526      1.0273736     -0.013378983    11585.238    
    368000   0.69408674     0.010101139   -1.053891       1.0370632     -0.016827775    11585.238    
    369000   0.73567046     0.0080645856  -1.1181309      1.0991951     -0.01893576     11585.238    
    370000   0.70090895     0.01131893    -1.063427       1.0472565     -0.016170506    11585.238    
    371000   0.74786993     0.016199811   -1.1344325      1.1174228     -0.017009677    11585.238    
    372000   0.71862788     0.010211855   -1.0910561      1.0737311     -0.017324977    11585.238    
    373000   0.70967493     0.009495723   -1.0783507      1.0603541     -0.0179966      11585.238    
    374000   0.73447531     0.0082756794  -1.1165616      1.0974094     -0.019152182    11585.238    
    375000   0.73105033     0.0071649115  -1.1099843      1.092292      -0.017692316    11585.238    
    376000   0.68686333     0.0083472596  -1.0386236      1.0262704     -0.012353194    11585.238    
    377000   0.66496515     0.0083002417  -1.0055976      0.99355145    -0.012046117    11585.238    
    378000   0.67490727     0.0052236058  -1.0200198      1.0084064     -0.011613471    11585.238    
    379000   0.66166368     0.012780081   -1.0033975      0.98861858    -0.01477887     11585.238    
    380000   0.66098393     0.0058100694  -0.99981246     0.98760294    -0.012209514    11585.238    
    381000   0.65194997     0.011423746   -0.98430412     0.97410494    -0.01019918     11585.238    
    382000   0.67880775     0.011036296   -1.0256926      1.0142342     -0.011458374    11585.238    
    383000   0.62867424     0.0088038839  -0.94912625     0.93932773    -0.0097985271   11585.238    
    384000   0.64611083     0.0063928536  -0.9744233      0.96538044    -0.0090428511   11585.238    
    385000   0.63960217     0.007589251   -0.96720603     0.95565558    -0.011550444    11585.238    
    386000   0.67159386     0.0077945809  -1.0160237      1.0034557     -0.012568025    11585.238    
    387000   0.67098817     0.011706926   -1.0150555      1.0025507     -0.012504816    11585.238    
    388000   0.6614199      0.012343812   -1.0036735      0.98825434    -0.015419131    11585.238    
    389000   0.68313201     0.011376676   -1.0345515      1.0206953     -0.013856247    11585.238    
    390000   0.71106117     0.0057848311  -1.0816044      1.0624254     -0.019179       11585.238    
    391000   0.6585856      0.014024202   -1.0005661      0.98401951    -0.016546571    11585.238    
    392000   0.71114765     0.0093915278  -1.0781253      1.0625546     -0.0155707      11585.238    
    393000   0.68554369     0.0044479886  -1.0412995      1.0242987     -0.01700078     11585.238    
    394000   0.70657635     0.010678184   -1.0703212      1.0557244     -0.014596797    11585.238    
    395000   0.71462184     0.009907355   -1.0886477      1.0677455     -0.020902154    11585.238    
    396000   0.74272226     0.012289807   -1.132051       1.1097315     -0.022319452    11585.238    
    397000   0.75994871     0.010481699   -1.1589425      1.1354702     -0.023472271    11585.238    
    398000   0.71191195     0.007263298   -1.0817625      1.0636966     -0.01806594     11585.238    
    399000   0.69548993     0.011395348   -1.0553688      1.0391598     -0.01620906     11585.238    
    400000   0.72879481     0.0047307292  -1.1050546      1.0889219     -0.01613264     11585.238    
    401000   0.74893926     0.0087039914  -1.1398948      1.1190206     -0.020874223    11585.238    
    402000   0.7290101      0.01430838    -1.1112167      1.0892436     -0.021973063    11585.238    
    403000   0.67807114     0.010435806   -1.02938        1.0131336     -0.016246311    11585.238    
    404000   0.68462004     0.0046820219  -1.0375554      1.0229186     -0.014636841    11585.238    
    405000   0.64577049     0.0070563792  -0.97962244     0.96487192    -0.014750522    11585.238    
    406000   0.69775596     0.0094762375  -1.0601458      1.0425455     -0.017600225    11585.238    
    407000   0.68287795     0.0077026956  -1.0319397      1.0203157     -0.011624001    11585.238    
    408000   0.67899825     0.012021171   -1.0310044      1.0145189     -0.01648558     11585.238    
    409000   0.72957348     0.0073009265  -1.1092739      1.0900854     -0.019188541    11585.238    
    410000   0.73904639     0.0050941606  -1.1240662      1.1042392     -0.019826927    11585.238    
    411000   0.7234745      0.0096820213  -1.1020475      1.0809726     -0.021074865    11585.238    
    412000   0.70717085     0.0099026998  -1.0774792      1.0566127     -0.020866554    11585.238    
    413000   0.76594372     0.012101135   -1.1702888      1.1444276     -0.025861185    11585.238    
    414000   0.73001246     0.011648137   -1.1135709      1.0907413     -0.022829592    11585.238    
    415000   0.71614062     0.0086343413  -1.0930163      1.0700148     -0.023001544    11585.238    
    416000   0.69318285     0.0090956062  -1.0526566      1.0357127     -0.016943926    11585.238    
    417000   0.71255229     0.010148906   -1.083712       1.0646533     -0.019058629    11585.238    
    418000   0.70000569     0.0083907277  -1.0655619      1.0459069     -0.019654953    11585.238    
    419000   0.706598       0.0086274542  -1.0735882      1.0557568     -0.017831444    11585.238    
    420000   0.69486116     0.013704016   -1.0560803      1.0382203     -0.017860028    11585.238    
    421000   0.68251526     0.014874575   -1.0373708      1.0197738     -0.01759705     11585.238    
    422000   0.71115511     0.013153071   -1.0829939      1.0625657     -0.020428192    11585.238    
    423000   0.7164931      0.013340344   -1.090592       1.0705414     -0.02005052     11585.238    
    424000   0.70074173     0.012456504   -1.0685103      1.0470067     -0.021503632    11585.238    
    425000   0.78245746     0.008250033   -1.1954483      1.1691015     -0.026346777    11585.238    
    426000   0.67331485     0.0071192537  -1.0248388      1.0060271     -0.018811737    11585.238    
    427000   0.70440793     0.012280843   -1.0732814      1.0524845     -0.020796925    11585.238    
    428000   0.71586163     0.011872385   -1.0902099      1.0695979     -0.020611955    11585.238    
    429000   0.74210998     0.0087348142  -1.1326388      1.1088167     -0.023822122    11585.238    
    430000   0.74753119     0.0056948999  -1.1416318      1.1169167     -0.024715099    11585.238    
    431000   0.7453321      0.013645078   -1.1397142      1.113631      -0.026083269    11585.238    
    432000   0.77067615     0.01035491    -1.1797359      1.1514985     -0.02823735     11585.238    
    433000   0.78424221     0.006896238   -1.198302       1.1717681     -0.026533884    11585.238    
    434000   0.78609995     0.015581441   -1.2027872      1.1745439     -0.028243363    11585.238    
    435000   0.75145862     0.0079313861  -1.1497344      1.1227849     -0.026949578    11585.238    
    436000   0.74777797     0.012689478   -1.1388671      1.1172854     -0.021581685    11585.238    
    437000   0.74820896     0.01647841    -1.1443104      1.1179294     -0.026381014    11585.238    
    438000   0.74735013     0.010258836   -1.137282       1.1166462     -0.020635839    11585.238    
    439000   0.73262763     0.0042649711  -1.1141678      1.0946487     -0.019519133    11585.238    
    440000   0.74088114     0.0076837686  -1.1300973      1.1069806     -0.023116699    11585.238    
    441000   0.70227074     0.0062501684  -1.0669396      1.0492912     -0.017648349    11585.238    
    442000   0.7541507      0.013111684   -1.153241       1.1268072     -0.026433767    11585.238    
    443000   0.75331362     0.011327183   -1.1488567      1.1255565     -0.023300175    11585.238    
    444000   0.72195327     0.011398505   -1.0991458      1.0786997     -0.020446046    11585.238    
    445000   0.70806978     0.01203972    -1.0758839      1.0579558     -0.0179281      11585.238    
    446000   0.71219301     0.0068959539  -1.0849651      1.0641165     -0.020848566    11585.238    
    447000   0.71930649     0.0060157739  -1.0950758      1.074745      -0.020330759    11585.238    
    448000   0.71332192     0.009341633   -1.085658       1.0658033     -0.019854786    11585.238    
    449000   0.71366268     0.012848952   -1.0857491      1.0663124     -0.019436656    11585.238    
    450000   0.67447416     0.0051926889  -1.0247143      1.0077592     -0.01695508     11585.238    
    451000   0.66404161     0.013620615   -1.0085057      0.99217155    -0.016334162    11585.238    
    452000   0.7025164      0.0073277997  -1.0655647      1.0496583     -0.01590642     11585.238    
    453000   0.66211912     0.010693002   -1.0041934      0.98929908    -0.014894338    11585.238    
    454000   0.65991687     0.0067722241  -1.0008632      0.98600861    -0.014854555    11585.238    
    455000   0.66334911     0.010875802   -1.0034666      0.99113685    -0.012329747    11585.238    
    456000   0.68983911     0.01131184    -1.0451149      1.0307166     -0.014398256    11585.238    
    457000   0.69690714     0.0098234658  -1.0567411      1.0412773     -0.015463865    11585.238    
    458000   0.66554403     0.008516039   -1.0089497      0.99441638    -0.01453335     11585.238    
    459000   0.65920292     0.012112743   -0.99871219     0.98494187    -0.013770324    11585.238    
    460000   0.69535409     0.012346196   -1.0585108      1.0389568     -0.019553981    11585.238    
    461000   0.66697195     0.011327448   -1.0109326      0.99654989    -0.014382673    11585.238    
    462000   0.66332796     0.010269986   -1.0042174      0.99110525    -0.013112146    11585.238    
    463000   0.70603269     0.006545872   -1.0732169      1.0549121     -0.018304778    11585.238    
    464000   0.6988453      0.011779933   -1.0627774      1.0441731     -0.0186043      11585.238    
    465000   0.70906501     0.011285303   -1.0775885      1.0594428     -0.018145671    11585.238    
    466000   0.72006026     0.010728947   -1.0943544      1.0758713     -0.018483068    11585.238    
    467000   0.73443902     0.012319774   -1.1177002      1.0973552     -0.02034503     11585.238    
    468000   0.71928077     0.0078322633  -1.0913214      1.0747066     -0.01661482     11585.238    
    469000   0.67379029     0.011032146   -1.0229778      1.0067374     -0.016240367    11585.238    
    470000   0.76797733     0.0088937793  -1.1740176      1.1474661     -0.026551469    11585.238    
    471000   0.71687952     0.0038420744  -1.0899548      1.0711188     -0.018836       11585.238    
    472000   0.69758277     0.012434302   -1.0619825      1.0422867     -0.019695729    11585.238    
    473000   0.69505272     0.0072031202  -1.0571738      1.0385065     -0.018667349    11585.238    
    474000   0.68281198     0.0090347742  -1.035875       1.0202171     -0.015657854    11585.238    
    475000   0.7109913      0.0069442954  -1.0824938      1.062321      -0.020172852    11585.238    
    476000   0.63591592     0.0046625926  -0.96240224     0.95014781    -0.012254429    11585.238    
    477000   0.63731562     0.0055743835  -0.9637072      0.95223916    -0.011468042    11585.238    
    478000   0.63966904     0.0096410199  -0.96770554     0.95575549    -0.011950049    11585.238    
    479000   0.68379214     0.011528089   -1.0404713      1.0216816     -0.018789665    11585.238    
    480000   0.68463762     0.0099572892  -1.0420952      1.0229449     -0.019150352    11585.238    
    481000   0.68737614     0.0087577309  -1.0452001      1.0270366     -0.018163526    11585.238    
    482000   0.63234277     0.0077701579  -0.95760744     0.94480902    -0.012798417    11585.238    
    483000   0.67160143     0.0088012375  -1.0164943      1.003467      -0.013027325    11585.238    
    484000   0.66257256     0.0053924143  -1.0063854      0.98997658    -0.016408846    11585.238    
    485000   0.68722902     0.0062533267  -1.0445995      1.0268168     -0.017782738    11585.238    
    486000   0.68912876     0.0045139667  -1.0447916      1.0296553     -0.015136281    11585.238    
    487000   0.65428978     0.0072875267  -0.99283657     0.97760093    -0.015235639    11585.238    
    488000   0.6621524      0.010278889   -1.0066898      0.98934881    -0.017340949    11585.238    
    489000   0.67481732     0.010386554   -1.0216142      1.008272      -0.013342259    11585.238    
    490000   0.6690883      0.0091429784  -1.0162785      0.99971202    -0.016566489    11585.238    
    491000   0.6677952      0.0098389017  -1.0147328      0.99777994    -0.016952887    11585.238    
    492000   0.68308634     0.0062134152  -1.035723       1.020627      -0.015095917    11585.238    
    493000   0.68868245     0.0061676726  -1.0447619      1.0289884     -0.015773453    11585.238    
    494000   0.66097448     0.010800886   -1.0030983      0.98758882    -0.015509461    11585.238    
    495000   0.6736241      0.0085673586  -1.021437       1.0064891     -0.014947868    11585.238    
    496000   0.65600777     0.013574333   -0.99390867     0.98016786    -0.013740811    11585.238    
    497000   0.65555272     0.0079672144  -0.99089566     0.97948796    -0.011407699    11585.238    
    498000   0.64967585     0.010904066   -0.98587214     0.97070708    -0.015165064    11585.238    
    499000   0.6313966      0.0059388281  -0.95436176     0.9433953     -0.010966455    11585.238    
    500000   0.685974       0.010242371   -1.0424101      1.0249416     -0.017468468    11585.238    
    501000   0.70158361     0.012171179   -1.0670081      1.0482646     -0.018743478    11585.238    
    502000   0.68154921     0.0054277887  -1.033727       1.0183304     -0.015396594    11585.238    
    503000   0.70393505     0.0092161419  -1.0724446      1.051778      -0.020666614    11585.238    
    504000   0.66706733     0.003650728   -1.0116815      0.9966924     -0.014989102    11585.238    
    505000   0.68304982     0.0075715543  -1.0354928      1.0205725     -0.014920326    11585.238    
    506000   0.67090587     0.0024398979  -1.0162921      1.0024277     -0.013864385    11585.238    
    507000   0.6456485      0.010468394   -0.97711453     0.96468965    -0.012424877    11585.238    
    508000   0.70035675     0.0065701702  -1.0615703      1.0464315     -0.015138833    11585.238    
    509000   0.68927062     0.0058573644  -1.0456972      1.0298672     -0.01582994     11585.238    
    510000   0.70797225     0.0080988373  -1.0790986      1.0578101     -0.021288445    11585.238    
    511000   0.72181966     0.0061535185  -1.0953296      1.0785001     -0.016829549    11585.238    
    512000   0.68636276     0.0058931775  -1.0430395      1.0255225     -0.017517071    11585.238    
    513000   0.71358985     0.010548617   -1.0848656      1.0662036     -0.018662009    11585.238    
    514000   0.68443521     0.0031408014  -1.0406738      1.0226424     -0.018031363    11585.238    
    515000   0.69484488     0.012970153   -1.0581374      1.038196      -0.019941462    11585.238    
    516000   0.69389408     0.010623485   -1.0584208      1.0367753     -0.021645477    11585.238    
    517000   0.72671926     0.0052802964  -1.1078821      1.0858208     -0.02206134     11585.238    
    518000   0.65933598     0.0048754953  -0.99817446     0.98514067    -0.013033794    11585.238    
    519000   0.67031434     0.0077205747  -1.0177027      1.0015439     -0.016158802    11585.238    
    520000   0.71361743     0.012146867   -1.0912516      1.0662448     -0.025006779    11585.238    
    521000   0.6724664      0.010604836   -1.0239352      1.0047594     -0.019175781    11585.238    
    522000   0.67739106     0.01456708    -1.0322253      1.0121175     -0.020107798    11585.238    
    523000   0.68410925     0.0065720098  -1.0402481      1.0221554     -0.018092693    11585.238    
    524000   0.64371616     0.012182378   -0.97896078     0.96180247    -0.017158308    11585.238    
    525000   0.66031478     0.011350014   -1.0026548      0.98660314    -0.016051699    11585.238    
    526000   0.65269933     0.0043433191  -0.99046412     0.97522459    -0.015239531    11585.238    
    527000   0.69339895     0.013320023   -1.0557112      1.0360355     -0.019675633    11585.238    
    528000   0.64057847     0.010366089   -0.97058045     0.95711432    -0.013466134    11585.238    
    529000   0.64875992     0.012866982   -0.98332233     0.96933855    -0.013983775    11585.238    
    530000   0.63614984     0.010063499   -0.96543502     0.95049732    -0.014937702    11585.238    
    531000   0.67116191     0.012140605   -1.0186312      1.0028103     -0.015820875    11585.238    
    532000   0.61155673     0.0095096918  -0.922286       0.91375175    -0.00853425     11585.238    
    533000   0.64458338     0.0075347906  -0.97639654     0.96309822    -0.013298319    11585.238    
    534000   0.61498787     0.0059617318  -0.92778487     0.91887836    -0.008906504    11585.238    
    535000   0.58603502     0.0056928155  -0.88115416     0.87561873    -0.0055354288   11585.238    
    536000   0.61936092     0.0049561638  -0.93395074     0.92541232    -0.0085384201   11585.238    
    537000   0.60403455     0.010053685   -0.91114066     0.90251256    -0.0086281014   11585.238    
    538000   0.65354931     0.0099264965  -0.98969787     0.97649457    -0.01320329     11585.238    
    539000   0.62207453     0.0086056705  -0.94133782     0.92946683    -0.011870989    11585.238    
    540000   0.62370762     0.0095047279  -0.94546494     0.9319069     -0.013558048    11585.238    
    541000   0.66756443     0.010686216   -1.0149328      0.99743514    -0.017497641    11585.238    
    542000   0.6252707      0.0061744009  -0.94681126     0.93424235    -0.012568916    11585.238    
    543000   0.67089145     0.0073798473  -1.0187783      1.0024062     -0.016372114    11585.238    
    544000   0.66463713     0.010587558   -1.0099633      0.99306134    -0.016901972    11585.238    
    545000   0.6292475      0.012342802   -0.95282105     0.94018425    -0.012636791    11585.238    
    546000   0.63210838     0.0085793593  -0.95619422     0.94445881    -0.011735406    11585.238    
    547000   0.64629343     0.014002982   -0.98232946     0.96565326    -0.016676192    11585.238    
    548000   0.63990092     0.005850273   -0.97153429     0.95610196    -0.015432327    11585.238    
    549000   0.65525855     0.012243625   -0.99593636     0.97904842    -0.016887941    11585.238    
    550000   0.62996947     0.0081579691  -0.95444771     0.94126297    -0.013184737    11585.238    
    551000   0.63117162     0.0072816752  -0.95522239     0.94305916    -0.012163232    11585.238    
    552000   0.65417162     0.0078831207  -0.99231112     0.9774244     -0.014886723    11585.238    
    553000   0.60893863     0.0070462656  -0.91807647     0.90983995    -0.0082365181   11585.238    
    554000   0.62111675     0.0073509872  -0.93846476     0.92803577    -0.010428994    11585.238    
    555000   0.64954811     0.0088474298  -0.98506657     0.97051622    -0.014550347    11585.238    
    556000   0.60846448     0.010430867   -0.92302802     0.90913149    -0.013896525    11585.238    
    557000   0.64846241     0.0066725001  -0.98306965     0.96889404    -0.014175614    11585.238    
    558000   0.64303418     0.0072810835  -0.97329465     0.96078349    -0.012511164    11585.238    
    559000   0.62838248     0.0097030982  -0.95050145     0.9388918     -0.011609655    11585.238    
    560000   0.65225921     0.0078284997  -0.98962464     0.97456698    -0.015057655    11585.238    
    561000   0.60951836     0.0089050307  -0.91897927     0.91070614    -0.0082731271   11585.238    
    562000   0.58987454     0.0042257106  -0.88708559     0.88135552    -0.0057300712   11585.238    
    563000   0.5975094      0.005298932   -0.89967386     0.89276306    -0.0069107965   11585.238    
    564000   0.60894295     0.010009322   -0.92098835     0.90984639    -0.011141951    11585.238    
    565000   0.62949958     0.0061457993  -0.95208753     0.9405609     -0.01152663     11585.238    
    566000   0.59473556     0.0098787034  -0.89458183     0.88861857    -0.0059632611   11585.238    
    567000   0.60132345     0.0026398412  -0.90673968     0.89846179    -0.0082778915   11585.238    
    568000   0.62726346     0.014194432   -0.94960592     0.93721981    -0.012386106    11585.238    
    569000   0.63733849     0.0084059886  -0.96246615     0.95227334    -0.010192817    11585.238    
    570000   0.63911123     0.0064935537  -0.9676081      0.95492205    -0.012686047    11585.238    
    571000   0.63886858     0.0074830044  -0.96556611     0.9545595     -0.011006606    11585.238    
    572000   0.61936175     0.011357877   -0.93635412     0.92541355    -0.010940577    11585.238    
    573000   0.68172484     0.010689931   -1.0371529      1.0185928     -0.018560075    11585.238    
    574000   0.65096115     0.01029244    -0.98399543     0.9726275     -0.011367938    11585.238    
    575000   0.64065336     0.0087416748  -0.97204906     0.95722621    -0.01482285     11585.238    
    576000   0.62971431     0.007570659   -0.95333693     0.94088174    -0.012455198    11585.238    
    577000   0.64837984     0.0064238966  -0.98149225     0.96877066    -0.012721588    11585.238    
    578000   0.62138431     0.0073224074  -0.93862504     0.92843554    -0.010189498    11585.238    
    579000   0.64805133     0.0056377589  -0.98187502     0.96827982    -0.013595196    11585.238    
    580000   0.66513075     0.0099565856  -1.0066426      0.99379888    -0.012843688    11585.238    
    581000   0.62234094     0.0032642208  -0.94048286     0.92986487    -0.01061799     11585.238    
    582000   0.63568093     0.0099984663  -0.96163543     0.94979671    -0.011838719    11585.238    
    583000   0.62128171     0.0067042771  -0.9412178      0.92828225    -0.012935552    11585.238    
    584000   0.64762191     0.0067016148  -0.98085752     0.9676382     -0.013219317    11585.238    
    585000   0.6279595      0.0051523649  -0.94940194     0.9382598     -0.011142141    11585.238    
    586000   0.66407371     0.011865394   -1.008426       0.99221951    -0.016206457    11585.238    
    587000   0.6286022      0.0061019098  -0.95109831     0.93922008    -0.011878227    11585.238    
    588000   0.64087073     0.0057851399  -0.97109494     0.957551      -0.013543938    11585.238    
    589000   0.614664       0.0074841064  -0.929697       0.91839445    -0.011302545    11585.238    
    590000   0.65518156     0.007916396   -0.99436776     0.97893339    -0.015434363    11585.238    
    591000   0.63901187     0.0074513418  -0.96914959     0.95477359    -0.014375999    11585.238    
    592000   0.63844267     0.0097981175  -0.96624387     0.95392313    -0.012320737    11585.238    
    593000   0.63437421     0.0060157352  -0.95979376     0.94784428    -0.011949479    11585.238    
    594000   0.64874321     0.011883933   -0.98438689     0.96931358    -0.015073312    11585.238    
    595000   0.67269346     0.0068237442  -1.0206927      1.0050986     -0.015594029    11585.238    
    596000   0.69268473     0.010371161   -1.0565754      1.0349684     -0.021607033    11585.238    
    597000   0.68768538     0.0072691249  -1.0481306      1.0274987     -0.020631922    11585.238    
    598000   0.69189833     0.015779476   -1.0542928      1.0337934     -0.020499362    11585.238    
    599000   0.67427258     0.011142574   -1.0285629      1.0074581     -0.021104862    11585.238    
    600000   0.66296659     0.0048010073  -1.0072798      0.99056532    -0.016714467    11585.238    
    601000   0.67161458     0.0058962549  -1.0237627      1.0034866     -0.02027604     11585.238    
    602000   0.66999496     0.0070903906  -1.0224583      1.0010667     -0.021391655    11585.238    
    603000   0.66652469     0.0060804417  -1.0132234      0.99588161    -0.017341835    11585.238    
    604000   0.68145553     0.014010204   -1.0373694      1.0181904     -0.019179028    11585.238    
    605000   0.69061149     0.0079686485  -1.0526052      1.0318707     -0.020734468    11585.238    
    606000   0.65999166     0.0051497931  -1.0014958      0.98612034    -0.015375408    11585.238    
    607000   0.68467644     0.0072404287  -1.0420172      1.0230029     -0.019014319    11585.238    
    608000   0.69231796     0.014343146   -1.0556284      1.0344204     -0.021208033    11585.238    
    609000   0.72266562     0.014538614   -1.1007136      1.0797641     -0.02094954     11585.238    
    610000   0.65087537     0.013172955   -0.99130792     0.97249933    -0.018808595    11585.238    
    611000   0.70307463     0.011075228   -1.0673997      1.0504924     -0.016907305    11585.238    
    612000   0.63889091     0.0090776666  -0.96779217     0.95459287    -0.013199305    11585.238    
    613000   0.64079566     0.0099649126  -0.96976997     0.95743883    -0.012331134    11585.238    
    614000   0.67408078     0.0094859474  -1.0237871      1.0071715     -0.016615661    11585.238    
    615000   0.65546869     0.007783883   -0.99367762     0.9793624     -0.014315221    11585.238    
    616000   0.64944767     0.011035075   -0.98502741     0.97036615    -0.014661265    11585.238    
    617000   0.65038548     0.012745712   -0.98611063     0.97176737    -0.014343262    11585.238    
    618000   0.64059436     0.0079703245  -0.96922033     0.95713805    -0.012082281    11585.238    
    619000   0.66439408     0.0051289759  -1.0073596      0.99269818    -0.014661425    11585.238    
    620000   0.67927099     0.0096093984  -1.0327329      1.0149264     -0.017806482    11585.238    
    621000   0.71975663     0.010380651   -1.0979314      1.0754176     -0.022513813    11585.238    
    622000   0.67338239     0.012858639   -1.024236       1.006128      -0.018108052    11585.238    
    623000   0.6832879      0.011089107   -1.039141       1.0209282     -0.01821277     11585.238    
    624000   0.67465773     0.007790136   -1.0226351      1.0080335     -0.014601551    11585.238    
    625000   0.69905878     0.010674563   -1.0643453      1.0444921     -0.019853152    11585.238    
    626000   0.63849913     0.0063176293  -0.96980836     0.95400749    -0.015800873    11585.238    
    627000   0.6817627      0.0094369534  -1.0380213      1.0186494     -0.019371928    11585.238    
    628000   0.66765712     0.0051509877  -1.0162724      0.99757363    -0.018698727    11585.238    
    629000   0.66367629     0.010375751   -1.0111371      0.9916257     -0.019511376    11585.238    
    630000   0.6326179      0.0069867536  -0.96189761     0.9452201     -0.016677514    11585.238    
    631000   0.65100718     0.0095368477  -0.9905743      0.97269628    -0.017878027    11585.238    
    632000   0.65339625     0.0077976724  -0.99563997     0.97626587    -0.019374095    11585.238    
    633000   0.64066518     0.0088286639  -0.97339375     0.95724387    -0.016149875    11585.238    
    634000   0.64111099     0.012489582   -0.97679066     0.95790998    -0.01888068     11585.238    
    635000   0.64583726     0.0047460636  -0.98015425     0.96497169    -0.015182562    11585.238    
    636000   0.65870412     0.0068331969  -1.0019783      0.98419659    -0.017781715    11585.238    
    637000   0.64554798     0.0047467585  -0.97910775     0.96453946    -0.014568289    11585.238    
    638000   0.61325255     0.0094534749  -0.92791469     0.91628554    -0.011629147    11585.238    
    639000   0.62993973     0.0085147025  -0.95401328     0.94121854    -0.012794745    11585.238    
    640000   0.61429267     0.0098652448  -0.92919948     0.91783963    -0.01135985     11585.238    
    641000   0.63251603     0.0059701809  -0.95725238     0.94506789    -0.012184493    11585.238    
    642000   0.64479807     0.002310933   -0.97654506     0.96341899    -0.013126069    11585.238    
    643000   0.62072649     0.010769265   -0.94305876     0.92745267    -0.015606088    11585.238    
    644000   0.64125167     0.0088952075  -0.97531038     0.95812017    -0.017190215    11585.238    
    645000   0.65926068     0.012440158   -1.0014941      0.98502817    -0.016465954    11585.238    
    646000   0.67824877     0.01001323    -1.0340378      1.013399      -0.020638769    11585.238    
    647000   0.66975398     0.011292246   -1.016168       1.0007066     -0.015461386    11585.238    
    648000   0.6417636      0.017243981   -0.97565406     0.95888506    -0.016769001    11585.238    
    649000   0.64585591     0.010886807   -0.98000225     0.96499956    -0.0150027      11585.238    
    650000   0.64734384     0.012042493   -0.98323086     0.96722274    -0.016008127    11585.238    
    651000   0.66349004     0.0075571981  -1.0095142      0.99134742    -0.018166818    11585.238    
    652000   0.68192456     0.0098776999  -1.0369935      1.0188912     -0.018102324    11585.238    
    653000   0.65371851     0.0090483384  -0.99821123     0.97674738    -0.021463847    11585.238    
    654000   0.69423845     0.010957328   -1.0598243      1.0372899     -0.022534397    11585.238    
    655000   0.68113026     0.012996845   -1.0405349      1.0177044     -0.022830484    11585.238    
    656000   0.70508399     0.0068703788  -1.0759947      1.0534946     -0.022500083    11585.238    
    657000   0.69851082     0.0081000408  -1.0651479      1.0436734     -0.021474494    11585.238    
    658000   0.67555326     0.0063776634  -1.0286329      1.0093716     -0.019261346    11585.238    
    659000   0.67244298     0.0094322989  -1.0234242      1.0047244     -0.01869978     11585.238    
    660000   0.70314989     0.014468299   -1.0751643      1.0506048     -0.024559438    11585.238    
    661000   0.69200795     0.0034021127  -1.0542132      1.0339572     -0.020255986    11585.238    
    662000   0.69605489     0.011645064   -1.0620227      1.0400039     -0.022018759    11585.238    
    663000   0.70798742     0.0094601919  -1.0801219      1.0578328     -0.022289082    11585.238    
    664000   0.71904343     0.0093488739  -1.1001596      1.074352      -0.025807547    11585.238    
    665000   0.73098395     0.0070488716  -1.1196983      1.0921928     -0.027505491    11585.238    
    666000   0.75046787     0.0088438242  -1.14757        1.1213045     -0.026265458    11585.238    
    667000   0.69318415     0.010369249   -1.058528       1.0357146     -0.022813383    11585.238    
    668000   0.69069438     0.010935954   -1.0574674      1.0319945     -0.025472866    11585.238    
    669000   0.72545942     0.018378402   -1.1133842      1.0839384     -0.029445796    11585.238    
    670000   0.69638963     0.0053099285  -1.0661173      1.040504      -0.025613248    11585.238    
    671000   0.67795049     0.0050145446  -1.0330659      1.0129534     -0.020112565    11585.238    
    672000   0.68435815     0.0065981252  -1.0442653      1.0225273     -0.021737939    11585.238    
    673000   0.69777165     0.012522159   -1.0672229      1.042569      -0.024653924    11585.238    
    674000   0.72539884     0.0083472045  -1.1061999      1.0838479     -0.022352037    11585.238    
    675000   0.70221795     0.0096055113  -1.0707784      1.0492124     -0.021565999    11585.238    
    676000   0.71030313     0.012480128   -1.0886306      1.0612928     -0.027337836    11585.238    
    677000   0.74865182     0.01070499    -1.1474668      1.1185911     -0.028875712    11585.238    
    678000   0.69673967     0.011723734   -1.0639426      1.041027      -0.02291561     11585.238    
    679000   0.70263012     0.0069511326  -1.072235       1.0498282     -0.022406808    11585.238    
    680000   0.72317002     0.012461432   -1.1066983      1.0805177     -0.02618058     11585.238    
    681000   0.69838143     0.0068881859  -1.065066       1.0434801     -0.021585962    11585.238    
    682000   0.71257453     0.0094256067  -1.0864235      1.0646866     -0.0217369      11585.238    
    683000   0.71235815     0.011652403   -1.0895449      1.0643633     -0.025181665    11585.238    
    684000   0.72524814     0.013448571   -1.1107893      1.0836227     -0.027166545    11585.238    
    685000   0.72453641     0.010696613   -1.1092762      1.0825593     -0.026716877    11585.238    
    686000   0.69487419     0.0060622086  -1.062409       1.0382398     -0.024169195    11585.238    
    687000   0.73764194     0.006651696   -1.1280964      1.1021408     -0.0259556      11585.238    
    688000   0.68305206     0.0096464597  -1.0452875      1.0205758     -0.024711625    11585.238    
    689000   0.67335557     0.0045784914  -1.0295384      1.0060879     -0.02345046     11585.238    
    690000   0.67458461     0.0063667821  -1.032387       1.0079243     -0.024462726    11585.238    
    691000   0.71088814     0.0093737455  -1.0858182      1.0621669     -0.023651367    11585.238    
    692000   0.67338109     0.0080560224  -1.025095       1.006126      -0.018968954    11585.238    
    693000   0.6930964      0.010159504   -1.0600323      1.0355835     -0.024448837    11585.238    
    694000   0.66790694     0.0099987915  -1.0221539      0.99794689    -0.024206972    11585.238    
    695000   0.66834744     0.0096185173  -1.0209363      0.99860507    -0.022331259    11585.238    
    696000   0.63294837     0.0060885151  -0.96135469     0.94571388    -0.015640813    11585.238    
    697000   0.64779395     0.0099877854  -0.98923628     0.96789525    -0.021341028    11585.238    
    698000   0.67477464     0.0020134027  -1.0297424      1.0082082     -0.021534173    11585.238    
    699000   0.6453282      0.010361629   -0.98237181     0.96421109    -0.018160725    11585.238    
    700000   0.68033492     0.0056975363  -1.0357881      1.016516      -0.019272015    11585.238    
    701000   0.66505935     0.0081940807  -1.0130284      0.9936922     -0.019336173    11585.238    
    702000   0.70827029     0.013470665   -1.0830188      1.0582554     -0.024763347    11585.238    
    703000   0.66337232     0.0060122525  -1.0118231      0.99117154    -0.020651596    11585.238    
    704000   0.69430804     0.0094201078  -1.0604308      1.0373938     -0.023037       11585.238    
    705000   0.69611348     0.011647396   -1.0670973      1.0400914     -0.027005861    11585.238    
    706000   0.65554009     0.0093797063  -1.0026449      0.97946908    -0.023175829    11585.238    
    707000   0.67153529     0.00518471    -1.0235349      1.0033682     -0.020166708    11585.238    
    708000   0.67085257     0.0079589248  -1.0241941      1.0023481     -0.021846061    11585.238    
    709000   0.70420927     0.012580991   -1.0770248      1.0521877     -0.024837156    11585.238    
    710000   0.6819971      0.0077076078  -1.0439612      1.0189996     -0.024961645    11585.238    
    711000   0.71951841     0.012392256   -1.101716       1.0750617     -0.026654345    11585.238    
    712000   0.6886542      0.0085557021  -1.0562315      1.0289462     -0.027285284    11585.238    
    713000   0.65388065     0.011009103   -1.0009686      0.97698965    -0.023978957    11585.238    
    714000   0.69205563     0.0065834399  -1.0573877      1.0340284     -0.023359312    11585.238    
    715000   0.68326148     0.0075293128  -1.0452483      1.0208887     -0.024359613    11585.238    
    716000   0.68423111     0.00923146    -1.0452407      1.0223375     -0.022903223    11585.238    
    717000   0.69484259     0.013839642   -1.0632834      1.0381925     -0.025090881    11585.238    
    718000   0.66174728     0.0045930822  -1.0120576      0.9887435     -0.023314101    11585.238    
    719000   0.68196658     0.010984538   -1.0434724      1.018954      -0.024518403    11585.238    
    720000   0.71775984     0.0090007133  -1.0977059      1.0724341     -0.025271771    11585.238    
    721000   0.71442949     0.015951572   -1.0938487      1.0674581     -0.026390549    11585.238    
    722000   0.72550709     0.0088248978  -1.1117816      1.0840096     -0.027772       11585.238    
    723000   0.6972824      0.0061689526  -1.0660722      1.041838      -0.024234239    11585.238    
    724000   0.7238502      0.011118936   -1.1090494      1.081534      -0.027515403    11585.238    
    725000   0.7015693      0.0049147359  -1.070699       1.0482432     -0.022455791    11585.238    
    726000   0.66872015     0.0077948209  -1.0195733      0.99916194    -0.020411332    11585.238    
    727000   0.66508778     0.0088677938  -1.0127512      0.99373467    -0.019016487    11585.238    
    728000   0.67850829     0.0099837605  -1.0353008      1.0137868     -0.021513963    11585.238    
    729000   0.68463594     0.010187401   -1.0451713      1.0229424     -0.022228886    11585.238    
    730000   0.70104267     0.0071759708  -1.0724138      1.0474563     -0.024957421    11585.238    
    731000   0.69004154     0.010483429   -1.0578629      1.0310191     -0.026843754    11585.238    
    732000   0.68834438     0.007560463   -1.0541631      1.0284833     -0.02567982     11585.238    
    733000   0.67117873     0.0054211226  -1.027763       1.0028354     -0.024927568    11585.238    
    734000   0.69848987     0.0062063111  -1.0700804      1.0436421     -0.026438265    11585.238    
    735000   0.70190712     0.010132496   -1.0765881      1.0487479     -0.027840128    11585.238    
    736000   0.66035959     0.006891228   -1.0066102      0.9866701     -0.019940124    11585.238    
    737000   0.67178412     0.011421138   -1.0252648      1.0037399     -0.021524836    11585.238    
    738000   0.67940982     0.0060274011  -1.0373472      1.0151338     -0.022213391    11585.238    
    739000   0.67398795     0.012825422   -1.0312751      1.0070328     -0.024242288    11585.238    
    740000   0.67946875     0.004323425   -1.0406069      1.0152219     -0.025385019    11585.238    
    741000   0.70119662     0.0053652584  -1.0715333      1.0476864     -0.023846944    11585.238    
    742000   0.7022078      0.0047098086  -1.0761377      1.0491972     -0.0269405      11585.238    
    743000   0.71601115     0.0012314869  -1.0967187      1.0698214     -0.026897337    11585.238    
    744000   0.72162563     0.0079114371  -1.1063406      1.0782102     -0.028130468    11585.238    
    745000   0.69077302     0.0056455371  -1.058132       1.032112      -0.026019967    11585.238    
    746000   0.65961861     0.0060196547  -1.0060669      0.98556296    -0.020503968    11585.238    
    747000   0.70720108     0.0090341267  -1.0827453      1.0566579     -0.026087389    11585.238    
    748000   0.71619865     0.0067642166  -1.0980112      1.0701015     -0.02790975     11585.238    
    749000   0.66861509     0.017908236   -1.0285956      0.99900497    -0.02959066     11585.238    
    750000   0.66851087     0.0049424343  -1.0231961      0.99884925    -0.024346861    11585.238    
    751000   0.69345637     0.0083318666  -1.060503       1.0361213     -0.024381648    11585.238    
    752000   0.71119876     0.012850807   -1.0931496      1.062631      -0.030518656    11585.238    
    753000   0.67545558     0.010568916   -1.0308928      1.0092256     -0.021667158    11585.238    
    754000   0.65205753     0.01159693    -0.99541389     0.97426564    -0.021148249    11585.238    
    755000   0.66379158     0.0072990331  -1.0159715      0.99179796    -0.024173562    11585.238    
    756000   0.72571396     0.0072414185  -1.1112455      1.0843187     -0.026926833    11585.238    
    757000   0.63567979     0.0090603606  -0.9682988      0.94979499    -0.018503804    11585.238    
    758000   0.69883865     0.013589379   -1.070493       1.0441632     -0.026329738    11585.238    
    759000   0.66900271     0.0044018409  -1.0226307      0.99958413    -0.023046526    11585.238    
    760000   0.6337764      0.0054510228  -0.96382393     0.94695107    -0.016872856    11585.238    
    761000   0.69523416     0.0081474071  -1.0655662      1.0387776     -0.026788577    11585.238    
    762000   0.70773409     0.010782456   -1.0828658      1.0574543     -0.025411495    11585.238    
    763000   0.66834166     0.0054619484  -1.020229       0.99859643    -0.021632552    11585.238    
    764000   0.62466305     0.0080528868  -0.94980547     0.93333444    -0.016471026    11585.238    
    765000   0.69743161     0.0065408262  -1.0666608      1.0420609     -0.024599916    11585.238    
    766000   0.70062171     0.01032114    -1.0708522      1.0468274     -0.024024849    11585.238    
    767000   0.68489874     0.0035805277  -1.0457516      1.023335      -0.02241658     11585.238    
    768000   0.65404398     0.013470096   -0.99901797     0.97723367    -0.021784297    11585.238    
    769000   0.6793995      0.013146804   -1.0406576      1.0151184     -0.025539159    11585.238    
    770000   0.70396011     0.0077165277  -1.0762422      1.0518154     -0.024426834    11585.238    
    771000   0.68212257     0.011768046   -1.0456412      1.019187      -0.026454195    11585.238    
    772000   0.69314359     0.0039365893  -1.0618028      1.035654      -0.026148787    11585.238    
    773000   0.69569975     0.0086440063  -1.0686346      1.0394733     -0.029161334    11585.238    
[...]
    816000   0.70053115     0.009176104   -1.0753747      1.046692      -0.028682653    11585.238    
    817000   0.6812817      0.005309471   -1.0446231      1.0179307     -0.026692427    11585.238    
    818000   0.73309023     0.013496642   -1.1291482      1.0953399     -0.033808341    11585.238    
    819000   0.71886747     0.0070651133  -1.1042213      1.0740891     -0.030132228    11585.238    
    820000   0.70657945     0.011442979   -1.0880276      1.0557291     -0.032298542    11585.238    
    821000   0.72736581     0.0094839193  -1.1181986      1.0867868     -0.031411777    11585.238    
    822000   0.71264845     0.005604121   -1.0939207      1.064797      -0.02912367     11585.238    
    823000   0.73858294     0.0059659799  -1.133863       1.1035468     -0.030316179    11585.238    
    824000   0.71528462     0.0095435693  -1.0972031      1.0687358     -0.028467333    11585.238    
    825000   0.69741177     0.0087601026  -1.0674436      1.0420313     -0.025412334    11585.238    
    826000   0.67064331     0.0097162631  -1.0276444      1.0020354     -0.025609033    11585.238    
    827000   0.72584111     0.0096768076  -1.1150635      1.0845087     -0.030554789    11585.238    
    828000   0.6881201      0.0059808548  -1.0554583      1.0281482     -0.027310112    11585.238    
    829000   0.68813217     0.0080143766  -1.0543475      1.0281662     -0.02618124     11585.238    
    830000   0.69690475     0.010256325   -1.0698831      1.0412737     -0.02860937     11585.238    
    831000   0.67695685     0.010377413   -1.0356976      1.0114687     -0.024228903    11585.238    
    832000   0.74069229     0.0084629216  -1.1371486      1.1066984     -0.030450203    11585.238    
    833000   0.72509276     0.0052478124  -1.1130143      1.0833906     -0.029623771    11585.238    
    834000   0.71959441     0.010248765   -1.1039774      1.0751752     -0.028802124    11585.238    
    835000   0.68365018     0.0091616527  -1.0499043      1.0214695     -0.028434774    11585.238    
    836000   0.68820729     0.0057148175  -1.0563118      1.0282785     -0.028033344    11585.238    
    837000   0.71171344     0.0066488335  -1.0905279      1.0634        -0.027127946    11585.238    
    838000   0.67034879     0.011583687   -1.0299628      1.0015954     -0.02836745     11585.238    
    839000   0.65934342     0.0092462623  -1.0073076      0.98515179    -0.022155805    11585.238    
    840000   0.69455667     0.012725109   -1.0656537      1.0377653     -0.027888328    11585.238    
    841000   0.68942223     0.008590829   -1.0559159      1.0300938     -0.025822105    11585.238    
    842000   0.72586489     0.015022644   -1.1172604      1.0845442     -0.032716201    11585.238    
    843000   0.6776803      0.011634275   -1.0401005      1.0125497     -0.027550854    11585.238    
    844000   0.65778814     0.0056084815  -1.0080927      0.98282798    -0.025264673    11585.238    
    845000   0.7139096      0.010521768   -1.0976568      1.0666813     -0.030975453    11585.238    
    846000   0.67505064     0.008930005   -1.033696       1.0086206     -0.025075379    11585.238    
    847000   0.67729981     0.0048053055  -1.0403909      1.0119812     -0.02840973     11585.238    
    848000   0.69899997     0.013089704   -1.0734639      1.0444042     -0.029059699    11585.238    
    849000   0.69693322     0.0088960144  -1.0671516      1.0413162     -0.02583531     11585.238    
    850000   0.65072908     0.0066100565  -0.99429359     0.97228075    -0.022012834    11585.238    
    851000   0.71248312     0.0088204407  -1.0938637      1.06455       -0.029313744    11585.238    
    852000   0.66645785     0.0091170148  -1.0187701      0.99578175    -0.0229884      11585.238    
    853000   0.72878944     0.0045931771  -1.1188754      1.0889139     -0.029961528    11585.238    
    854000   0.69608699     0.0052252756  -1.0699033      1.0400518     -0.029851447    11585.238    
    855000   0.69015541     0.0068021007  -1.0562173      1.0311892     -0.025028043    11585.238    
    856000   0.65608832     0.0069139766  -1.0013017      0.98028821    -0.021013472    11585.238    
    857000   0.68293651     0.0021317634  -1.0430616      1.0204032     -0.022658438    11585.238    
    858000   0.66051319     0.012277002   -1.0125528      0.98689959    -0.025653231    11585.238    
    859000   0.68162849     0.0066059044  -1.0423393      1.0184488     -0.023890451    11585.238    
    860000   0.67306123     0.0080068901  -1.0321184      1.0056481     -0.026470302    11585.238    
    861000   0.65798075     0.00856358    -1.0067419      0.98311576    -0.023626149    11585.238    
    862000   0.67356081     0.0031128758  -1.0312614      1.0063946     -0.024866779    11585.238    
    863000   0.6959711      0.0093371117  -1.0667237      1.0398787     -0.026845027    11585.238    
    864000   0.67803058     0.0045231359  -1.0372254      1.013073      -0.024152391    11585.238    
    865000   0.67471149     0.010871226   -1.0367902      1.0081139     -0.028676355    11585.238    
    866000   0.64024471     0.0033777328  -0.97823414     0.95661562    -0.02161852     11585.238    
    867000   0.63627559     0.0062672279  -0.97250979     0.9506852     -0.021824591    11585.238    
    868000   0.65675157     0.0041292645  -1.0048781      0.9812792     -0.023598923    11585.238    
    869000   0.68027525     0.0039936541  -1.0404973      1.0164269     -0.024070382    11585.238    
    870000   0.6724764      0.0080582291  -1.0307461      1.0047743     -0.025971807    11585.238    
    871000   0.69157343     0.0083963759  -1.0608642      1.033308      -0.027556287    11585.238    
    872000   0.68067935     0.0065643784  -1.0432771      1.0170307     -0.026246394    11585.238    
    873000   0.70958325     0.0077570064  -1.0897462      1.0602172     -0.02952905     11585.238    
    874000   0.64717137     0.010546676   -0.99164416     0.96696504    -0.02467913     11585.238    
    875000   0.63651203     0.014308559   -0.97479537     0.95103848    -0.023756888    11585.238    
    876000   0.63691496     0.0070339947  -0.97247018     0.95164051    -0.020829662    11585.238    
    877000   0.61977004     0.0096329231  -0.94700042     0.92602359    -0.020976833    11585.238    
    878000   0.65646226     0.013706836   -1.0068605      0.98084693    -0.026013603    11585.238    
    879000   0.69003988     0.013943055   -1.0614757      1.0310166     -0.030459053    11585.238    
    880000   0.67677941     0.0068972037  -1.0363427      1.0112036     -0.025139045    11585.238    
    881000   0.6790467      0.0079137797  -1.0415297      1.0145913     -0.026938437    11585.238    
    882000   0.68642651     0.0072739261  -1.0513724      1.0256177     -0.0257547      11585.238    
    883000   0.68372489     0.011389486   -1.0510157      1.0215811     -0.029434554    11585.238    
    884000   0.62932392     0.010583588   -0.96317013     0.94029843    -0.022871699    11585.238    
    885000   0.65956581     0.0059179517  -1.0089478      0.98548407    -0.02346372     11585.238    
    886000   0.69128199     0.0090423215  -1.0592515      1.0328725     -0.026378952    11585.238    
    887000   0.65672297     0.010492897   -1.0061741      0.98123648    -0.024937614    11585.238    
    888000   0.65587279     0.013897309   -1.0055505      0.97996618    -0.025584285    11585.238    
    889000   0.64080393     0.0095799017  -0.98352492     0.95745119    -0.026073736    11585.238    
    890000   0.69776877     0.0066397989  -1.0713189      1.0425647     -0.028754189    11585.238    
    891000   0.70268991     0.0055225266  -1.0767235      1.0499175     -0.026806003    11585.238    
    892000   0.71017067     0.0067969606  -1.0906982      1.0610948     -0.029603339    11585.238    
    893000   0.68585928     0.0077670883  -1.0524265      1.0247702     -0.02765633     11585.238    
    894000   0.71497869     0.0067541369  -1.1001775      1.0682787     -0.031898747    11585.238    
    895000   0.71641105     0.0095089989  -1.1047946      1.0704189     -0.034375736    11585.238    
    896000   0.72659375     0.0090080047  -1.1188194      1.0856332     -0.033186171    11585.238    
    897000   0.72608435     0.0083848814  -1.1185432      1.0848721     -0.033671087    11585.238    
    898000   0.71111253     0.011171702   -1.0942413      1.0625021     -0.031739155    11585.238    
    899000   0.71597039     0.0074406985  -1.0999115      1.0697604     -0.030151039    11585.238    
    900000   0.6861397      0.0120665     -1.0550236      1.0251892     -0.029834363    11585.238    
    901000   0.68577618     0.0058059634  -1.0538737      1.024646      -0.029227615    11585.238    
    902000   0.70784692     0.010144473   -1.0868276      1.0576228     -0.029204729    11585.238    
    903000   0.68582308     0.0057255982  -1.0509545      1.0247161     -0.026238336    11585.238    
    904000   0.6942193      0.01119248    -1.0661196      1.0372613     -0.028858358    11585.238    
    905000   0.67432516     0.01154057    -1.0343818      1.0075366     -0.026845207    11585.238    
    906000   0.68948898     0.0069511107  -1.0575647      1.0301935     -0.027371197    11585.238    
    907000   0.67578959     0.011802382   -1.0366068      1.0097247     -0.026882064    11585.238    
    908000   0.66364521     0.012535155   -1.0159033      0.99157927    -0.024324001    11585.238    
    909000   0.66228312     0.012177043   -1.0156699      0.98954411    -0.026125785    11585.238    
    910000   0.70711703     0.01092649    -1.0838903      1.0565323     -0.027357977    11585.238    
    911000   0.68416735     0.0068592751  -1.0491353      1.0222422     -0.026893104    11585.238    
    912000   0.70309963     0.010737452   -1.080017       1.0505297     -0.029487275    11585.238    
    913000   0.66492818     0.005254686   -1.0154008      0.99349621    -0.021904626    11585.238    
    914000   0.7084761      0.0060183363  -1.0873667      1.0585629     -0.028803808    11585.238    
    915000   0.66399779     0.011890721   -1.019871       0.99210607    -0.027764958    11585.238    
    916000   0.66006883     0.0098091083  -1.0124158      0.98623565    -0.026180137    11585.238    
    917000   0.69848655     0.006851989   -1.071222       1.0436371     -0.027584901    11585.238    
    918000   0.73362225     0.010096108   -1.1280122      1.0961348     -0.031877369    11585.238    
    919000   0.72171596     0.0052360492  -1.1094813      1.0783451     -0.031136118    11585.238    
    920000   0.68310543     0.012385515   -1.05078        1.0206556     -0.030124426    11585.238    
    921000   0.71494047     0.012582284   -1.1008685      1.0682216     -0.032646865    11585.238    
    922000   0.73495573     0.0083995874  -1.1292176      1.0981272     -0.031090368    11585.238    
    923000   0.69289145     0.010397673   -1.0652815      1.0352773     -0.030004229    11585.238    
    924000   0.69635484     0.017974155   -1.0718162      1.0404521     -0.031364143    11585.238    
    925000   0.66018842     0.0069197064  -1.0131781      0.98641434    -0.026763715    11585.238    
    926000   0.68600899     0.0053763976  -1.0545627      1.0249939     -0.029568793    11585.238    
    927000   0.69328192     0.0065468439  -1.0663263      1.0358607     -0.030465582    11585.238    
    928000   0.7046772      0.0098920626  -1.0886767      1.0528868     -0.035789834    11585.238    
    929000   0.69042637     0.0048708324  -1.0566442      1.0315941     -0.025050161    11585.238    
    930000   0.70062964     0.0103611     -1.0775964      1.0468392     -0.030757211    11585.238    
    931000   0.66523528     0.0080680337  -1.0222613      0.99395506    -0.028306268    11585.238    
    932000   0.70734828     0.0053315893  -1.0898061      1.0568778     -0.032928313    11585.238    
    933000   0.67825307     0.0049359285  -1.0437318      1.0134055     -0.030326359    11585.238    
    934000   0.66752409     0.0046347915  -1.0311235      0.99737486    -0.033748601    11585.238    
    935000   0.69202522     0.011867359   -1.0655044      1.033983      -0.031521417    11585.238    
    936000   0.63752347     0.0093480544  -0.97446704     0.95254972    -0.021917317    11585.238    
    937000   0.69855326     0.011041671   -1.0746934      1.0437368     -0.030956608    11585.238    
    938000   0.6930682      0.012123151   -1.0662449      1.0355413     -0.030703521    11585.238    
    939000   0.71282083     0.0071768019  -1.0962068      1.0650546     -0.031152289    11585.238    
    940000   0.71286492     0.0058572963  -1.0931401      1.0651204     -0.028019661    11585.238    
    941000   0.71055575     0.0050007348  -1.093723       1.0616702     -0.032052783    11585.238    
    942000   0.69474584     0.0093389508  -1.0670696      1.038048      -0.029021584    11585.238    
    943000   0.67197501     0.0094229601  -1.0331508      1.0040252     -0.029125607    11585.238    
    944000   0.68748837     0.011059998   -1.0551303      1.0272043     -0.027926052    11585.238    
    945000   0.66531824     0.0039179646  -1.0177253      0.99407901    -0.023646314    11585.238    
    946000   0.62653274     0.013136406   -0.96057712     0.93612801    -0.024449106    11585.238    
    947000   0.69260179     0.0094757029  -1.0656081      1.0348445     -0.030763619    11585.238    
    948000   0.6507921      0.009834353   -1.0005389      0.97237492    -0.028163952    11585.238    
    949000   0.71021951     0.0060311283  -1.0910795      1.0611678     -0.029911695    11585.238    
    950000   0.65389264     0.0058158392  -1.0046107      0.97700755    -0.027603191    11585.238    
    951000   0.63981349     0.0060701405  -0.98096147     0.95597133    -0.024990139    11585.238    
    952000   0.65026727     0.001711436   -0.99561169     0.97159074    -0.024020946    11585.238    
    953000   0.65284057     0.011536209   -1.0025443      0.97543561    -0.027108709    11585.238    
    954000   0.63712992     0.0044935572  -0.97730342     0.9519617     -0.025341715    11585.238    
    955000   0.70102774     0.012608232   -1.078613       1.047434      -0.031178994    11585.238    
    956000   0.65964361     0.012806168   -1.0132717      0.98560032    -0.027671382    11585.238    
    957000   0.6892867      0.006790556   -1.0595699      1.0298913     -0.029678686    11585.238    
    958000   0.6978109      0.0077165361  -1.0730255      1.0426276     -0.030397862    11585.238    
    959000   0.64947253     0.0070470162  -0.99616601     0.9704033     -0.025762712    11585.238    
    960000   0.63256477     0.0036219583  -0.96986341     0.94514072    -0.024722692    11585.238    
    961000   0.65873304     0.0096830595  -1.0101522      0.9842398     -0.025912354    11585.238    
    962000   0.69237819     0.0065517184  -1.0634897      1.0345104     -0.02897932     11585.238    
    963000   0.65918547     0.011153629   -1.0116317      0.98491579    -0.026715948    11585.238    
    964000   0.65881275     0.0096816195  -1.0101755      0.98435889    -0.025816597    11585.238    
    965000   0.63566482     0.0090717173  -0.97572778     0.94977263    -0.025955155    11585.238    
    966000   0.65378361     0.0059150122  -1.0042108      0.97684465    -0.027366153    11585.238    
    967000   0.69083551     0.0097863818  -1.0604154      1.0322054     -0.028210042    11585.238    
    968000   0.67162558     0.0099065635  -1.035083       1.0035031     -0.031579929    11585.238    
    969000   0.67142056     0.0058762234  -1.0304597      1.0031967     -0.027262973    11585.238    
    970000   0.68554203     0.0091597037  -1.0549454      1.0242962     -0.030649195    11585.238    
    971000   0.65914311     0.0096430141  -1.0105258      0.9848525     -0.025673325    11585.238    
    972000   0.62299232     0.010213962   -0.95365785     0.93083814    -0.022819706    11585.238    
    973000   0.61679517     0.0080645943  -0.94329778     0.92157872    -0.021719056    11585.238    
    974000   0.62681562     0.010000993   -0.9604099      0.93655069    -0.023859217    11585.238    
    975000   0.62785731     0.0057877403  -0.96309239     0.93810712    -0.024985274    11585.238    
    976000   0.61870246     0.0042035938  -0.94250697     0.92442848    -0.018078491    11585.238    
    977000   0.60424724     0.009028555   -0.9244942      0.90283034    -0.021663856    11585.238    
    978000   0.64191977     0.010507555   -0.98526743     0.9591184     -0.026149031    11585.238    
    979000   0.63470259     0.0087175298  -0.97145864     0.94833493    -0.023123711    11585.238    
    980000   0.65933258     0.012643141   -1.0092258      0.9851356     -0.024090204    11585.238    
    981000   0.66514322     0.011449658   -1.019671       0.9938175     -0.025853494    11585.238    
    982000   0.67896451     0.0043053717  -1.0404992      1.0144685     -0.026030751    11585.238    
    983000   0.65393165     0.0062769166  -1.0011972      0.97706585    -0.024131341    11585.238    
    984000   0.66718483     0.0080278654  -1.0225827      0.99686796    -0.025714725    11585.238    
    985000   0.65488521     0.0066822311  -1.0047633      0.9784906     -0.026272716    11585.238    
    986000   0.66686913     0.0055516049  -1.0233642      0.99639627    -0.02696791     11585.238    
    987000   0.63538633     0.012410268   -0.9751763      0.94935653    -0.025819768    11585.238    
    988000   0.6529373      0.0086430545  -1.0035406      0.97558014    -0.027960484    11585.238    
    989000   0.66569554     0.0088644388  -1.0220389      0.99464275    -0.027396188    11585.238    
    990000   0.61835572     0.0046130269  -0.94719704     0.92391041    -0.023286636    11585.238    
    991000   0.63696109     0.012464636   -0.97565914     0.95170944    -0.023949699    11585.238    
    992000   0.64022075     0.0087697677  -0.97898195     0.95657983    -0.022402113    11585.238    
    993000   0.62575571     0.0086105118  -0.96057581     0.93496702    -0.02560879     11585.238    
    994000   0.62282554     0.0080565198  -0.95164238     0.93058895    -0.021053428    11585.238    
    995000   0.64811826     0.011490432   -0.99342709     0.96837982    -0.025047279    11585.238    
    996000   0.64960991     0.0033314886  -0.99219473     0.97060856    -0.021586173    11585.238    
    997000   0.68117592     0.0090989266  -1.0453807      1.0177726     -0.027608117    11585.238    
    998000   0.64733363     0.0013209812  -0.99233122     0.96720748    -0.025123737    11585.238    
    999000   0.63603443     0.0053084817  -0.97335508     0.95032489    -0.023030194    11585.238    
   1000000   0.64459563     0.0080186776  -0.98892167     0.96311652    -0.025805144    11585.238    
Loop time of 25.0287 on 2 procs for 1000000 steps with 256 atoms

Performance: 17260195.698 tau/day, 39954.157 timesteps/s
99.6% CPU use with 2 MPI tasks x no OpenMP threads

MPI task timing breakdown:
Section |  min time  |  avg time  |  max time  |%varavg| %total
---------------------------------------------------------------
Pair    | 7.3794     | 8.4592     | 9.539      |  37.1 | 33.80
Neigh   | 2.6085     | 2.8188     | 3.029      |  12.5 | 11.26
Comm    | 10.145     | 11.433     | 12.722     |  38.1 | 45.68
Output  | 0.0089484  | 0.012182   | 0.015416   |   2.9 |  0.05
Modify  | 1.8546     | 1.8569     | 1.8592     |   0.2 |  7.42
Other   |            | 0.4483     |            |       |  1.79

Nlocal:            128 ave         138 max         118 min
Histogram: 1 0 0 0 0 0 0 0 0 1
Nghost:          147.5 ave         163 max         132 min
Histogram: 1 0 0 0 0 0 0 0 0 1
Neighs:            610 ave         663 max         557 min
Histogram: 1 0 0 0 0 0 0 0 0 1

Total # of neighbors = 1220
Ave neighs/atom = 4.765625
Neighbor list builds = 50000
Dangerous builds not checked
Total wall time: 0:00:25
