LAMMPS (23 Jun 2022 - Update 2)
Reading data file ...
  orthogonal box = (-11.313708 -11.313708 -11.313708) to (11.313708 11.313708 11.313708)
  1 by 1 by 1 MPI processor grid
  reading atoms ...
  256 atoms
  read_data CPU = 0.009 seconds
Generated 0 of 0 mixed pair_coeff terms from geometric mixing rule
Neighbor list info ...
  update every 20 steps, delay 0 steps, check no
  max neighbors/atom: 2000, page size: 100000
  master list distance cutoff = 2.8
  ghost atom cutoff = 2.8
  binsize = 1.4, bins = 17 17 17
  1 neighbor lists, perpetual/occasional/extra = 1 0 0
  (1) pair lj/cut, perpetual
      attributes: half, newton on
      pair build: half/bin/atomonly/newton
      stencil: half/bin/3d
      bin: standard
Setting up Verlet run ...
  Unit style    : lj
  Current step  : 0
  Time step     : 0.005
Per MPI rank memory allocation (min/avg/max) = 2.599 | 2.599 | 2.599 Mbytes
   Step          Temp          Press          PotEng         KinEng         TotEng         Volume    
         0   1.5            0.035308173   -2.3642772      2.2412109     -0.12306624     11585.238    
      1000   0.95497032     0.0075496439  -1.459028       1.42686       -0.032168039    11585.238    
      2000   0.8686393      0.015473579   -1.3211639      1.2978693     -0.023294681    11585.238    
      3000   0.81131021     0.0097071361  -1.2299209      1.2122115     -0.01770938     11585.238    
      4000   0.80955188     0.0095731632  -1.2213482      1.2095844     -0.011763819    11585.238    
      5000   0.77690254     0.010309362   -1.174278       1.1608017     -0.013476305    11585.238    
      6000   0.78653645     0.0052774187  -1.1878071      1.1751961     -0.012611013    11585.238    
      7000   0.77341086     0.01386224    -1.1681292      1.1555846     -0.012544645    11585.238    
      8000   0.78240323     0.010987677   -1.182054       1.1690205     -0.013033538    11585.238    
      9000   0.76718272     0.013427937   -1.1635793      1.1462789     -0.017300433    11585.238    
     10000   0.75626865     0.0121306     -1.1483254      1.1299717     -0.01835368     11585.238    
     11000   0.73561542     0.0088437587  -1.1121235      1.0991129     -0.013010612    11585.238    
     12000   0.7349951      0.01005111    -1.1111601      1.098186      -0.012974019    11585.238    
     13000   0.73208997     0.013879177   -1.1073285      1.0938454     -0.013483117    11585.238    
     14000   0.76584047     0.0069402797  -1.1602492      1.1442734     -0.015975884    11585.238    
     15000   0.75422249     0.012389226   -1.1400076      1.1269145     -0.013093174    11585.238    
     16000   0.70770477     0.0064307523  -1.064917       1.0574104     -0.0075065974   11585.238    
     17000   0.71813282     0.0094369187  -1.083288       1.0729914     -0.010296596    11585.238    
     18000   0.69242369     0.013578166   -1.0415561      1.0345784     -0.0069776942   11585.238    
     19000   0.72226016     0.0091360267  -1.0885059      1.0791582     -0.0093476581   11585.238    
     20000   0.70131913     0.013639826   -1.0575599      1.0478694     -0.0096905236   11585.238    
     21000   0.70651285     0.0069728646  -1.0609795      1.0556295     -0.0053499409   11585.238    
     22000   0.71975518     0.011339699   -1.086003       1.0754155     -0.010587572    11585.238    
     23000   0.72807241     0.0071345511  -1.1005126      1.0878426     -0.012670085    11585.238    
     24000   0.70421889     0.00970988    -1.0595203      1.0522021     -0.0073182187   11585.238    
     25000   0.72929579     0.0099631591  -1.0987092      1.0896705     -0.0090387311   11585.238    
     26000   0.75310816     0.011540068   -1.1354221      1.1252495     -0.010172612    11585.238    
     27000   0.6815315      0.0093780634  -1.0246512      1.0183039     -0.00634733     11585.238    
     28000   0.67317145     0.0062998127  -1.0105695      1.0058128     -0.004756723    11585.238    
     29000   0.65134917     0.0099920382  -0.9740554      0.97320726    -0.00084814806  11585.238    
     30000   0.68490636     0.0077809149  -1.0277277      1.0233464     -0.004381309    11585.238    
     31000   0.70300346     0.0064664549  -1.0545338      1.050386      -0.0041477674   11585.238    
     32000   0.67743086     0.0092499907  -1.0157927      1.012177      -0.0036157422   11585.238    
     33000   0.70201189     0.0085740668  -1.0559222      1.0489045     -0.0070177423   11585.238    
     34000   0.71111343     0.015679547   -1.0716311      1.0625035     -0.0091276289   11585.238    
     35000   0.6892611      0.0093823036  -1.0341916      1.029853      -0.0043386142   11585.238    
     36000   0.6690964      0.0107592     -1.0032847      0.99972411    -0.003560592    11585.238    
     37000   0.65485265     0.0078458912  -0.98477863     0.97844195    -0.0063366845   11585.238    
     38000   0.682028       0.0071821971  -1.0269823      1.0190457     -0.0079365553   11585.238    
     39000   0.68190936     0.0092172632  -1.024226       1.0188685     -0.0053574749   11585.238    
     40000   0.68443323     0.010661638   -1.0311431      1.0226395     -0.0085035628   11585.238    
     41000   0.70625079     0.0083403769  -1.0645719      1.055238      -0.0093339157   11585.238    
     42000   0.71298209     0.010751098   -1.0732363      1.0652955     -0.0079407893   11585.238    
     43000   0.68592551     0.006138869   -1.0306052      1.0248692     -0.0057360262   11585.238    
     44000   0.67925203     0.010989879   -1.0197412      1.0148981     -0.0048431379   11585.238    
     45000   0.70187121     0.0038628766  -1.0557053      1.0486943     -0.0070110122   11585.238    
     46000   0.6793639      0.012773952   -1.0205396      1.0150652     -0.0054743867   11585.238    
     47000   0.72016397     0.0073250814  -1.0875737      1.0760262     -0.011547459    11585.238    
     48000   0.68164845     0.0061796368  -1.0282754      1.0184786     -0.0097967706   11585.238    
     49000   0.7178791      0.012876381   -1.0849893      1.0726123     -0.012376941    11585.238    
     50000   0.70439329     0.012180226   -1.0631586      1.0524626     -0.01069594     11585.238    
     51000   0.71530622     0.0063555211  -1.0794479      1.0687681     -0.010679839    11585.238    
     52000   0.73276117     0.011800118   -1.1068834      1.0948482     -0.012035124    11585.238    
     53000   0.6952197      0.0024250489  -1.0435891      1.038756      -0.0048330545   11585.238    
     54000   0.73547908     0.0049305776  -1.1102211      1.0989092     -0.011311883    11585.238    
     55000   0.64678448     0.012973563   -0.97296124     0.96638696    -0.0065742765   11585.238    
     56000   0.66303861     0.0093636856  -0.99861264     0.99067293    -0.0079397154   11585.238    
     57000   0.73355129     0.0089425301  -1.1080029      1.0960288     -0.011974153    11585.238    
     58000   0.68562682     0.010282012   -1.0298832      1.0244229     -0.0054603087   11585.238    
     59000   0.68331648     0.010806124   -1.0245991      1.0209709     -0.0036282296   11585.238    
     60000   0.70368736     0.0069161602  -1.0591974      1.0514079     -0.007789529    11585.238    
     61000   0.71963426     0.010148484   -1.0878393      1.0752348     -0.012604516    11585.238    
     62000   0.71469082     0.0077051158  -1.0783259      1.0678486     -0.010477305    11585.238    
     63000   0.67723052     0.0095958851  -1.0169067      1.0118776     -0.0050290517   11585.238    
     64000   0.66241378     0.006781308   -0.9950065      0.98973934    -0.0052671589   11585.238    
     65000   0.65688486     0.013858482   -0.9875655      0.98147835    -0.0060871425   11585.238    
     66000   0.67861401     0.0047653092  -1.0175525      1.0139448     -0.0036077104   11585.238    
     67000   0.7016018      0.0078749177  -1.0560022      1.0482917     -0.0077104687   11585.238    
     68000   0.63885118     0.0071502958  -0.96003482     0.9545335     -0.0055013275   11585.238    
     69000   0.65475346     0.012613803   -0.98103328     0.97829375    -0.0027395255   11585.238    
     70000   0.64557467     0.0085503175  -0.96575161     0.96457935    -0.0011722628   11585.238    
     71000   0.64681025     0.0068975813  -0.96655913     0.96642548    -0.00013365314  11585.238    
     72000   0.65575585     0.0062804841  -0.98098678     0.97979146    -0.0011953188   11585.238    
     73000   0.65861324     0.0090095799  -0.98548649     0.9840608     -0.0014256878   11585.238    
     74000   0.64525573     0.0070234881  -0.96720302     0.9641028     -0.0031002244   11585.238    
     75000   0.6836729      0.009993722   -1.0247694      1.0215034     -0.0032659879   11585.238    
     76000   0.66467263     0.0074751204  -0.99676093     0.99311437    -0.0036465604   11585.238    
     77000   0.67137134     0.010550366   -1.0090344      1.0031232     -0.0059111866   11585.238    
     78000   0.65352441    -5.7127633e-05 -0.97882975     0.97645737    -0.0023723714   11585.238    
     79000   0.66279673     0.0091519911  -0.99401441     0.99031151    -0.0037028971   11585.238    
     80000   0.68313491     0.0074725498  -1.0262474      1.0206996     -0.0055478038   11585.238    
     81000   0.69865988     0.0071131771  -1.0522495      1.0438961     -0.008353406    11585.238    
     82000   0.66787072     0.0050939593  -1.0013731      0.99789277    -0.0034803527   11585.238    
     83000   0.66782669     0.0066240785  -1.0054149      0.99782699    -0.0075879509   11585.238    
     84000   0.68975735     0.0085780166  -1.0342749      1.0305945     -0.0036804363   11585.238    
     85000   0.67288083     0.012289215   -1.0094249      1.0053786     -0.0040463702   11585.238    
     86000   0.65476688     0.0077220672  -0.98105582     0.97831379    -0.0027420268   11585.238    
     87000   0.67111337     0.007615003   -1.0070876      1.0027377     -0.0043498996   11585.238    
     88000   0.68162204     0.007737823   -1.0239692      1.0184392     -0.0055300661   11585.238    
     89000   0.69208712     0.00814538    -1.0406943      1.0340755     -0.0066187922   11585.238    
     90000   0.69427442     0.0062513132  -1.0447908      1.0373436     -0.007447152    11585.238    
     91000   0.6902937      0.011458696   -1.0418034      1.0313959     -0.010407553    11585.238    
     92000   0.70797064     0.0072126286  -1.0672292      1.0578077     -0.0094215235   11585.238    
     93000   0.69272892     0.0094945044  -1.0463764      1.0350344     -0.011341942    11585.238    
     94000   0.69721027     0.013163247   -1.0508636      1.0417302     -0.0091334148   11585.238    
     95000   0.75052973     0.013145653   -1.1357675      1.121397      -0.014370542    11585.238    
     96000   0.71754657     0.011237925   -1.079761       1.0721155     -0.007645484    11585.238    
     97000   0.68649699     0.011937127   -1.03371        1.025723      -0.0079869192   11585.238    
     98000   0.74938034     0.0072207405  -1.1331132      1.1196796     -0.013433626    11585.238    
     99000   0.6908536      0.016085658   -1.046638       1.0322324     -0.014405576    11585.238    
    100000   0.73494363     0.01176284    -1.1098781      1.0981091     -0.011768991    11585.238    
    101000   0.6548888      0.0095859676  -0.98457721     0.97849596    -0.0060812459   11585.238    
    102000   0.72618246     0.011590599   -1.0969486      1.0850187     -0.011929906    11585.238    
    103000   0.67807613     0.005855824   -1.0171348      1.0131411     -0.003993676    11585.238    
    104000   0.71127205     0.012747481   -1.0738397      1.0627405     -0.01109921     11585.238    
    105000   0.69841147     0.0046589616  -1.0522103      1.0435249     -0.008685323    11585.238    
    106000   0.67531592     0.0098408488  -1.0159491      1.009017      -0.0069321387   11585.238    
    107000   0.69641234     0.0053960243  -1.0444184      1.040538      -0.0038803887   11585.238    
    108000   0.68705024     0.0085500533  -1.0342312      1.0265497     -0.0076815329   11585.238    
    109000   0.72195953     0.0097224337  -1.0873684      1.0787091     -0.0086593701   11585.238    
    110000   0.69713397     0.010523922   -1.0514821      1.0416162     -0.0098658756   11585.238    
    111000   0.67331007     0.014304736   -1.0119324      1.0060199     -0.0059125188   11585.238    
    112000   0.77750217     0.012211998   -1.1749223      1.1616976     -0.013224712    11585.238    
    113000   0.70627854     0.0066345782  -1.0642765      1.0552795     -0.0089970687   11585.238    
    114000   0.72516747     0.012428671   -1.0958631      1.0835022     -0.012360952    11585.238    
    115000   0.72179103     0.0099101731  -1.0900613      1.0784573     -0.011603954    11585.238    
    116000   0.74879641     0.013083062   -1.1333283      1.1188071     -0.014521179    11585.238    
    117000   0.70924317     0.011616765   -1.0689591      1.059709      -0.0092500186   11585.238    
    118000   0.70680342     0.0066185129  -1.0694967      1.0560637     -0.013432973    11585.238    
    119000   0.69795845     0.01958131    -1.0579401      1.0428481     -0.015092041    11585.238    
    120000   0.70159549     0.0098768193  -1.0562442      1.0482823     -0.0079618939   11585.238    
    121000   0.68760404     0.014373399   -1.0370062      1.0273771     -0.0096291128   11585.238    
    122000   0.70928879     0.014885744   -1.0712486      1.0597772     -0.01147142     11585.238    
    123000   0.72009937     0.010155564   -1.086423       1.0759297     -0.010493245    11585.238    
    124000   0.67551135     0.011543895   -1.0191903      1.009309      -0.0098813437   11585.238    
    125000   0.72590663     0.0037090462  -1.0962292      1.0846066     -0.011622641    11585.238    
    126000   0.67172853     0.0033138806  -1.0113636      1.0036569     -0.0077067179   11585.238    
    127000   0.6805408      0.0016628817  -1.0221214      1.0168237     -0.005297741    11585.238    
    128000   0.66230761     0.014123956   -0.99630128     0.9895807     -0.0067205817   11585.238    
    129000   0.72582202     0.01265412    -1.0983177      1.0844802     -0.01383757     11585.238    
    130000   0.67831439     0.0038664917  -1.0178134      1.0134971     -0.0043163095   11585.238    
    131000   0.71200383     0.009003406   -1.0777718      1.0638339     -0.013937991    11585.238    
    132000   0.71359527     0.0046590016  -1.0773751      1.0662117     -0.011163446    11585.238    
    133000   0.70775232     0.002016976   -1.0632432      1.0574815     -0.0057616636   11585.238    
    134000   0.71270755     0.011152222   -1.0787879      1.0648853     -0.013902563    11585.238    
    135000   0.72381443     0.015349352   -1.0970659      1.0814806     -0.015585399    11585.238    
    136000   0.71634407     0.0082613545  -1.0827653      1.0703188     -0.012446516    11585.238    
    137000   0.7155291      0.0084568276  -1.0806267      1.0691011     -0.011525645    11585.238    
    138000   0.70052645     0.0085624241  -1.0587785      1.046685      -0.012093439    11585.238    
    139000   0.68298961     0.015532488   -1.0339765      1.0204825     -0.013493934    11585.238    
    140000   0.7066993      0.0053694408  -1.0716307      1.0559081     -0.015722583    11585.238    
    141000   0.76185736     0.0071347477  -1.155782       1.138322      -0.017459977    11585.238    
    142000   0.71175552     0.012944852   -1.0776821      1.0634628     -0.014219259    11585.238    
    143000   0.71681988     0.011370436   -1.083135       1.0710297     -0.012105287    11585.238    
    144000   0.69171536     0.0058441296  -1.0422488      1.03352       -0.0087287793   11585.238    
    145000   0.69306715     0.013135595   -1.0463487      1.0355398     -0.010808958    11585.238    
    146000   0.67804242     0.010674703   -1.020783       1.0130907     -0.0076922344   11585.238    
    147000   0.74011509     0.012361647   -1.1173806      1.105836      -0.011544603    11585.238    
    148000   0.66998406     0.012773894   -1.0075405      1.0010504     -0.0064901353   11585.238    
    149000   0.67464163     0.0062134593  -1.0145579      1.0080095     -0.0065484208   11585.238    
    150000   0.650781       0.0080071367  -0.97877757     0.97235834    -0.0064192356   11585.238    
    151000   0.62255499     0.0083715173  -0.93545219     0.93018471    -0.0052674766   11585.238    
    152000   0.65168864     0.013176494   -0.98167857     0.97371448    -0.0079640916   11585.238    
    153000   0.65005186     0.0055815833  -0.97637352     0.9712689     -0.0051046275   11585.238    
    154000   0.66357461     0.012860636   -0.99863011     0.99147378    -0.007156331    11585.238    
    155000   0.70545831     0.0049193119  -1.0608666      1.0540539     -0.0068126421   11585.238    
    156000   0.68813015     0.0057421071  -1.0366554      1.0281632     -0.0084922289   11585.238    
    157000   0.69001602     0.010145371   -1.0403905      1.030981      -0.0094095561   11585.238    
    158000   0.67347901     0.0019805435  -1.0158217      1.0062723     -0.0095493776   11585.238    
    159000   0.66870554     0.0096651064  -1.0050614      0.99914011    -0.0059213319   11585.238    
    160000   0.64557574     0.016210193   -0.97097451     0.96458095    -0.0063935643   11585.238    
    161000   0.65939679     0.010133466   -0.99089368     0.98523153    -0.005662155    11585.238    
    162000   0.65864875     0.012469662   -0.98832441     0.98411386    -0.0042105484   11585.238    
    163000   0.66149915     0.013820079   -0.99504538     0.98837275    -0.0066726294   11585.238    
    164000   0.63100131     0.0055839016  -0.94609788     0.94280468    -0.0032931997   11585.238    
    165000   0.6505989      0.0076026223  -0.97690321     0.97208625    -0.0048169581   11585.238    
    166000   0.60495673     0.0064976958  -0.9026064      0.90389043     0.0012840257   11585.238    
    167000   0.60982964     0.0066274361  -0.90925602     0.91117125     0.0019152253   11585.238    
    168000   0.6173365      0.0064253523  -0.92370947     0.92238754    -0.0013219275   11585.238    
    169000   0.5907568      0.0026707631  -0.88298507     0.88267373    -0.00031133657  11585.238    
    170000   0.64439479     0.0066717402  -0.96984892     0.96281643    -0.007032489    11585.238    
    171000   0.62929025     0.0096343209  -0.94497977     0.94024812    -0.0047316522   11585.238    
    172000   0.64781665     0.0068530142  -0.96718899     0.96792917     0.00074017552  11585.238    
    173000   0.68550829     0.0059295563  -1.0294154      1.0242458     -0.005169639    11585.238    
    174000   0.65202611     0.0066285241  -0.98192564     0.9742187     -0.0077069391   11585.238    
    175000   0.69212407     0.0060694693  -1.0423765      1.0341307     -0.0082458578   11585.238    
    176000   0.62207072     0.0074571965  -0.9307523      0.92946114    -0.0012911678   11585.238    
    177000   0.70229251     0.012698038   -1.0595581      1.0493238     -0.010234378    11585.238    
    178000   0.6355538      0.009391943   -0.95182486     0.94960676    -0.0022181007   11585.238    
    179000   0.67767566     0.0060615734  -1.0192964      1.0125427     -0.0067536683   11585.238    
    180000   0.65828051     0.0038710442  -0.9891331      0.98356366    -0.0055694448   11585.238    
    181000   0.64827729     0.019194707   -0.97580819     0.96861743    -0.0071907618   11585.238    
    182000   0.62909983     0.0089948394  -0.94549652     0.93996362    -0.0055329045   11585.238    
    183000   0.65104138     0.0077123932  -0.97787933     0.97274738    -0.0051319502   11585.238    
    184000   0.69450309     0.011413346   -1.047979       1.0376853     -0.010293749    11585.238    
    185000   0.69149084     0.010191472   -1.0401866      1.0331846     -0.0070020312   11585.238    
    186000   0.65377314     0.0097276768  -0.98344468     0.97682901    -0.0066156721   11585.238    
    187000   0.68459413     0.0086294328  -1.0317815      1.0228799     -0.0089015586   11585.238    
    188000   0.65165306     0.0097505984  -0.97761123     0.97366132    -0.0039499132   11585.238    
    189000   0.64929946     0.012813449   -0.97513915     0.97014471    -0.0049944404   11585.238    
    190000   0.68551243     0.013760469   -1.034645       1.024252      -0.010393062    11585.238    
    191000   0.66275635     0.010880544   -0.99827066     0.99025118    -0.008019476    11585.238    
    192000   0.68267892     0.0060622416  -1.0326521      1.0200183     -0.012633816    11585.238    
    193000   0.67030927     0.0067753563  -1.0112309      1.0015363     -0.0096945931   11585.238    
    194000   0.68010892     0.0025365356  -1.0231739      1.0161784     -0.0069955118   11585.238    
    195000   0.64516004     0.0065017515  -0.96870639     0.96395983    -0.0047465566   11585.238    
    196000   0.6101853      0.0064834035  -0.91404442     0.91170265    -0.0023417654   11585.238    
    197000   0.65718054     0.0084168434  -0.98543821     0.98192014    -0.0035180728   11585.238    
    198000   0.60374268     0.0052372543  -0.89991397     0.90207647     0.0021625053   11585.238    
    199000   0.60724121     0.0094473572  -0.90602069     0.90730377     0.0012830804   11585.238    
    200000   0.62872944     0.009102409   -0.94417709     0.9394102     -0.004766884    11585.238    
    201000   0.61623877     0.008723359   -0.92051152     0.92074738     0.0002358592   11585.238    
    202000   0.6284052      0.0064089822  -0.9390939      0.93892574    -0.00016816351  11585.238    
    203000   0.66199929     0.0092521331  -0.9946139      0.98912003    -0.0054938635   11585.238    
    204000   0.65948953     0.0064965598  -0.98902395     0.9853701     -0.0036538514   11585.238    
    205000   0.63906089     0.008847234   -0.95718918     0.95484684    -0.0023423321   11585.238    
    206000   0.65576789     0.0064104864  -0.98309612     0.97980944    -0.0032866762   11585.238    
    207000   0.58669819     0.0069349935  -0.87590749     0.8766096      0.00070210798  11585.238    
    208000   0.62349889     0.0067906173  -0.93121667     0.93159502     0.00037835183  11585.238    
    209000   0.7136369      0.01307552    -1.0799846      1.0662739     -0.013710703    11585.238    
    210000   0.67032686     0.0098103849  -1.0066652      1.0015626     -0.0051025875   11585.238    
    211000   0.66295711     0.0088031168  -0.99703885     0.99055114    -0.0064877096   11585.238    
    212000   0.64079997     0.0042153897  -0.96095875     0.95744527    -0.0035134742   11585.238    
    213000   0.63658181     0.0024491896  -0.95477659     0.95114274    -0.0036338535   11585.238    
    214000   0.64286691     0.0086650104  -0.96210254     0.96053357    -0.0015689722   11585.238    
    215000   0.65067433     0.007631271   -0.97976337     0.97219895    -0.0075644202   11585.238    
    216000   0.67923946     0.01122459    -1.0248443      1.0148793     -0.0099649828   11585.238    
    217000   0.64330962     0.0035172562  -0.96610735     0.96119503    -0.0049123141   11585.238    
    218000   0.66811074     0.0068076181  -1.0041436      0.9982514     -0.0058922144   11585.238    
    219000   0.66618915     0.0091907722  -1.002938       0.99538027    -0.0075577627   11585.238    
    220000   0.64242723     0.0067196736  -0.96680514     0.95987662    -0.0069285242   11585.238    
    221000   0.6667708      0.012828747   -1.0020129      0.99624933    -0.005763526    11585.238    
    222000   0.65425282     0.011160866   -0.98102457     0.97754571    -0.0034788563   11585.238    
    223000   0.65728534     0.010692856   -0.98648338     0.98207673    -0.0044066464   11585.238    
    224000   0.64863813     0.0079478368  -0.97406871     0.96915659    -0.0049121184   11585.238    
    225000   0.61781683     0.011771239   -0.92685787     0.92310522    -0.0037526472   11585.238    
    226000   0.64927055     0.011129227   -0.97471822     0.97010151    -0.0046167098   11585.238    
    227000   0.65317893     0.008019622   -0.9796419      0.97594117    -0.0037007284   11585.238    
    228000   0.6637522      0.010386039   -0.99910512     0.99173913    -0.0073659955   11585.238    
    229000   0.64496769     0.01162824    -0.9671885      0.96367242    -0.0035160715   11585.238    
    230000   0.63890168     0.011363343   -0.95827188     0.95460895    -0.0036629323   11585.238    
    231000   0.65738218     0.010229393   -0.98794583     0.98222143    -0.0057243999   11585.238    
    232000   0.65437969     0.0074045995  -0.98215279     0.97773527    -0.0044175123   11585.238    
    233000   0.65384506     0.0053110624  -0.98522119     0.97693647    -0.0082847183   11585.238    
    234000   0.63094321     0.0060378036  -0.94851283     0.94271788    -0.0057949462   11585.238    
    235000   0.64294622     0.0060918551  -0.96535671     0.96065207    -0.0047046396   11585.238    
    236000   0.65211151     0.011573216   -0.98439295     0.97434629    -0.010046657    11585.238    
    237000   0.67315735     0.010153667   -1.0164602      1.0057917     -0.010668405    11585.238    
    238000   0.6816845      0.006214191   -1.0290516      1.0185325     -0.010519101    11585.238    
    239000   0.70935308     0.0110797     -1.0731621      1.0598733     -0.013288818    11585.238    
    240000   0.72485327     0.012732993   -1.1043053      1.0830327     -0.021272547    11585.238    
    241000   0.71267391     0.010244467   -1.0798577      1.064835      -0.015022691    11585.238    
    242000   0.68503428     0.0047375352  -1.0344476      1.0235376     -0.010910042    11585.238    
    243000   0.69822308     0.011563999   -1.05735        1.0432435     -0.014106547    11585.238    
    244000   0.77511463     0.0041479763  -1.1758018      1.1581303     -0.017671494    11585.238    
    245000   0.71352092     0.0078955021  -1.0799795      1.0661006     -0.013878922    11585.238    
    246000   0.67813879     0.0067548991  -1.0249244      1.0132347     -0.011689708    11585.238    
    247000   0.71431648     0.0056551587  -1.0810643      1.0672893     -0.013774974    11585.238    
    248000   0.71077387     0.010651627   -1.0749444      1.0619961     -0.012948237    11585.238    
    249000   0.68096291     0.011086121   -1.0303278      1.0174543     -0.012873474    11585.238    
    250000   0.6813297      0.0084798461  -1.0263721      1.0180024     -0.008369693    11585.238    
    251000   0.64106605     0.0068469232  -0.96678206     0.95784282    -0.0089392357   11585.238    
    252000   0.71082183     0.0063935616  -1.0756747      1.0620678     -0.01360697     11585.238    
    253000   0.67851508     0.0085915068  -1.0258672      1.0137969     -0.012070216    11585.238    
    254000   0.65284288     0.0070312284  -0.98472896     0.97543907    -0.0092898985   11585.238    
    255000   0.68387156     0.0098204285  -1.0322268      1.0218003     -0.010426533    11585.238    
    256000   0.68776163     0.0083267391  -1.0406981      1.0276126     -0.013085521    11585.238    
    257000   0.68318286     0.0098348687  -1.0312167      1.0207713     -0.0104454      11585.238    
    258000   0.68041467     0.0072342617  -1.0248122      1.0166352     -0.0081769753   11585.238    
    259000   0.6503565      0.0069412621  -0.97824968     0.97172407    -0.006525607    11585.238    
    260000   0.64670233     0.011500686   -0.97126258     0.96626423    -0.0049983488   11585.238    
    261000   0.66650702     0.0050805163  -1.0020507      0.99585521    -0.0061954993   11585.238    
    262000   0.6640671      0.0086800328  -0.99980123     0.99220963    -0.0075916006   11585.238    
    263000   0.64679884     0.010566682   -0.97456464     0.96640842    -0.0081562176   11585.238    
    264000   0.66629192     0.01074977    -1.0048376      0.99553383    -0.0093037283   11585.238    
    265000   0.66052306     0.0085749104  -0.9943115      0.98691434    -0.0073971618   11585.238    
    266000   0.62684685     0.0037913123  -0.9409261      0.93659735    -0.0043287541   11585.238    
    267000   0.62608358     0.0095122465  -0.94225957     0.93545691    -0.0068026591   11585.238    
    268000   0.64481044     0.004999226   -0.97250431     0.96343748    -0.0090668304   11585.238    
    269000   0.65893396     0.0055395109  -0.99007399     0.98453999    -0.005533991    11585.238    
    270000   0.6904007      0.011589174   -1.0408851      1.0315557     -0.0093294183   11585.238    
    271000   0.65778706     0.010274129   -0.99052314     0.98282637    -0.0076967758   11585.238    
    272000   0.67857306     0.0082388817  -1.0201904      1.0138836     -0.0063068555   11585.238    
    273000   0.68643942     0.014680258   -1.0372272      1.025637      -0.011590181    11585.238    
    274000   0.69770408     0.0051164703  -1.0527922      1.042468      -0.010324232    11585.238    
    275000   0.66326112     0.012894755   -1.0027177      0.99100539    -0.01171232     11585.238    
    276000   0.69909203     0.0099862026  -1.057496       1.0445418     -0.012954204    11585.238    
    277000   0.64481109     0.0068664204  -0.97084341     0.96343845    -0.0074049622   11585.238    
    278000   0.654556       0.0074102777  -0.98678629     0.97799872    -0.0087875769   11585.238    
    279000   0.66601406     0.0089775436  -1.0036762      0.99511866    -0.0085575169   11585.238    
    280000   0.64209561     0.0068446086  -0.96711772     0.95938114    -0.0077365837   11585.238    
    281000   0.67576386     0.011879819   -1.0188106      1.0096862     -0.0091243598   11585.238    
    282000   0.69884111     0.013143302   -1.0565098      1.0441669     -0.012342864    11585.238    
    283000   0.66951372     0.0056016031  -1.0080909      1.0003476     -0.0077432214   11585.238    
    284000   0.65754849     0.0085872895  -0.99004673     0.98246991    -0.0075768207   11585.238    
    285000   0.66916247     0.012880684   -1.010043       0.99982283    -0.010220171    11585.238    
    286000   0.71212153     0.016687051   -1.0771265      1.0640097     -0.013116787    11585.238    
    287000   0.67851423     0.011048872   -1.0268263      1.0137957     -0.013030604    11585.238    
    288000   0.67240235     0.0058007493  -1.0133877      1.0046637     -0.0087240029   11585.238    
    289000   0.6695988      0.0052057617  -1.0106992      1.0004748     -0.010224454    11585.238    
    290000   0.70180179     0.0069250479  -1.0607663      1.0485906     -0.012175701    11585.238    
    291000   0.67419385     0.0075256248  -1.0180525      1.0073404     -0.010712106    11585.238    
    292000   0.69159927     0.006477452   -1.0443568      1.0333466     -0.011010239    11585.238    
    293000   0.7267736      0.008937619   -1.0987022      1.085902      -0.012800257    11585.238    
    294000   0.74567489     0.0062856742  -1.1298239      1.1141432     -0.015680759    11585.238    
    295000   0.71524524     0.0086107283  -1.0833654      1.068677      -0.014688456    11585.238    
    296000   0.68820541     0.0047030541  -1.0415972      1.0282757     -0.013321578    11585.238    
    297000   0.68807039     0.0084694987  -1.0376051      1.0280739     -0.0095311876   11585.238    
    298000   0.69427023     0.0066848911  -1.0508838      1.0373373     -0.013546485    11585.238    
    299000   0.6745195      0.012233604   -1.0187048      1.007827      -0.010877758    11585.238    
    300000   0.69158808     0.011497435   -1.0476144      1.0333298     -0.014284521    11585.238    
    301000   0.7363159      0.014670125   -1.1153111      1.1001595     -0.015151589    11585.238    
    302000   0.66402792     0.0082674435  -1.0012439      0.99215108    -0.0090928492   11585.238    
    303000   0.69599724     0.0087457977  -1.0520252      1.0399178     -0.012107478    11585.238    
    304000   0.68698535     0.012429461   -1.0391282      1.0264527     -0.012675448    11585.238    
    305000   0.65934619     0.006982428   -0.99355667     0.98515593    -0.0084007364   11585.238    
    306000   0.71085954     0.013056478   -1.0777165      1.0621241     -0.01559241     11585.238    
    307000   0.69883849     0.0098617514  -1.0577679      1.044163      -0.013604873    11585.238    
    308000   0.69163485     0.0067121127  -1.0453412      1.0333997     -0.01194144     11585.238    
    309000   0.66952362     0.012217556   -1.0109711      1.0003624     -0.010608707    11585.238    
    310000   0.69723636     0.013310438   -1.0555234      1.0417692     -0.013754174    11585.238    
    311000   0.67587473     0.0064298828  -1.0211722      1.0098519     -0.01132034     11585.238    
    312000   0.70682697     0.01382465    -1.0705564      1.0560989     -0.014457501    11585.238    
    313000   0.70695621     0.0069931565  -1.0681673      1.056292      -0.011875353    11585.238    
    314000   0.72284491     0.008410494   -1.0917936      1.0800319     -0.011761644    11585.238    
    315000   0.72621872     0.010697688   -1.100585       1.0850729     -0.015512147    11585.238    
    316000   0.69872417     0.013996604   -1.0572294      1.0439922     -0.013237218    11585.238    
    317000   0.6882641      0.01648903    -1.042524       1.0283633     -0.014160608    11585.238    
    318000   0.71040464     0.0067721922  -1.0747958      1.0614444     -0.013351413    11585.238    
    319000   0.73341117     0.0069044094  -1.1135595      1.0958194     -0.017740091    11585.238    
    320000   0.68029272     0.0075075566  -1.0295901      1.016453      -0.013137085    11585.238    
    321000   0.69300078     0.0094604695  -1.0492602      1.0354406     -0.013819597    11585.238    
    322000   0.68845555     0.012348598   -1.0424922      1.0286494     -0.013842834    11585.238    
    323000   0.67371447     0.01229293    -1.0198439      1.0066242     -0.013219751    11585.238    
    324000   0.71559725     0.0086759811  -1.0868214      1.0692029     -0.017618459    11585.238    
    325000   0.68406688     0.0083903792  -1.0348955      1.0220921     -0.012803364    11585.238    
    326000   0.75199694     0.0078086594  -1.1429411      1.1235892     -0.019351883    11585.238    
    327000   0.71927921     0.0099298662  -1.0904065      1.0747043     -0.01570218     11585.238    
    328000   0.73656782     0.0088391007  -1.1155578      1.1005359     -0.015021916    11585.238    
    329000   0.7194121      0.011431973   -1.0897666      1.0749028     -0.014863721    11585.238    
    330000   0.72048257     0.0089166564  -1.0941483      1.0765023     -0.017646073    11585.238    
    331000   0.73346751     0.010551755   -1.1161496      1.0959036     -0.020246032    11585.238    
    332000   0.74333909     0.011282965   -1.1280944      1.1106531     -0.017441307    11585.238    
    333000   0.70309306     0.0060799639  -1.0651782      1.0505199     -0.014658328    11585.238    
    334000   0.72207354     0.0042247042  -1.0957208      1.0788794     -0.016841388    11585.238    
    335000   0.72041468     0.012510459   -1.0936823      1.0764008     -0.017281475    11585.238    
    336000   0.73635665     0.0094123326  -1.1184093      1.1002204     -0.018188961    11585.238    
    337000   0.7029082      0.0035114734  -1.0639045      1.0502437     -0.013660795    11585.238    
    338000   0.68637349     0.0085261551  -1.0369026      1.0255385     -0.011364049    11585.238    
    339000   0.71469502     0.011535238   -1.0855623      1.0678549     -0.017707418    11585.238    
    340000   0.70759612     0.0066734775  -1.0753172      1.0572481     -0.018069091    11585.238    
    341000   0.71713273     0.010839179   -1.0922013      1.0714971     -0.020704119    11585.238    
    342000   0.70189497     0.012174622   -1.0656922      1.0487298     -0.016962433    11585.238    
    343000   0.71641697     0.015250117   -1.0858418      1.0704277     -0.015414135    11585.238    
    344000   0.67565364     0.010985842   -1.0246784      1.0095216     -0.015156793    11585.238    
    345000   0.698127       0.0057969687  -1.0588944      1.0430999     -0.015794459    11585.238    
    346000   0.75197593     0.0092085429  -1.1425851      1.1235578     -0.019027283    11585.238    
    347000   0.71027623     0.014431877   -1.0756909      1.0612526     -0.014438364    11585.238    
    348000   0.69869317     0.011537072   -1.059089       1.0439459     -0.015143127    11585.238    
    349000   0.68039341     0.012073676   -1.026816       1.0166034     -0.010212553    11585.238    
    350000   0.67888336     0.0144834     -1.0246991      1.0143472     -0.010351855    11585.238    
    351000   0.65497617     0.009972206   -0.9866685      0.97862651    -0.0080419911   11585.238    
    352000   0.64375027     0.0089859738  -0.96715405     0.96185342    -0.0053006211   11585.238    
    353000   0.65679631     0.004576231   -0.9892744      0.98134605    -0.0079283562   11585.238    
    354000   0.64425722     0.0085080745  -0.97088253     0.96261088    -0.0082716516   11585.238    
    355000   0.6649936      0.0091978765  -1.0046604      0.99359396    -0.011066411    11585.238    
    356000   0.63076599     0.0068724501  -0.94982741     0.94245309    -0.0073743244   11585.238    
    357000   0.64228768     0.010776414   -0.97151883     0.95966812    -0.011850707    11585.238    
    358000   0.65950171     0.010621546   -0.99531666     0.9853883     -0.0099283633   11585.238    
    359000   0.65586276     0.0089843291  -0.98709503     0.9799512     -0.0071438295   11585.238    
    360000   0.65879421     0.013756864   -0.996415       0.9843312     -0.012083802    11585.238    
    361000   0.61585641     0.0070040068  -0.92548104     0.92017608    -0.0053049604   11585.238    
    362000   0.63297675     0.012742161   -0.95686616     0.94575628    -0.011109884    11585.238    
    363000   0.63004429     0.008588677   -0.94890114     0.94137477    -0.00752637     11585.238    
    364000   0.62008738     0.0034248084  -0.93433215     0.92649774    -0.0078344121   11585.238    
    365000   0.65768215     0.0094674937  -0.9948568      0.98266962    -0.012187184    11585.238    
    366000   0.64001398     0.0081095018  -0.96345723     0.95627089    -0.0071863348   11585.238    
    367000   0.65139628     0.0066122678  -0.98210573     0.97327765    -0.0088280772   11585.238    
    368000   0.64678629     0.010613516   -0.97411308     0.96638968    -0.0077234055   11585.238    
    369000   0.65452981     0.012135245   -0.98723606     0.97795958    -0.0092764738   11585.238    
    370000   0.64983606     0.0077103174  -0.98000805     0.97094646    -0.0090615834   11585.238    
    371000   0.64144006     0.013810018   -0.96929927     0.95840166    -0.010897612    11585.238    
    372000   0.65055171     0.0053723996  -0.97830524     0.97201574    -0.0062894998   11585.238    
    373000   0.63045098     0.0049461761  -0.94976123     0.94198243    -0.0077788034   11585.238    
    374000   0.66207263     0.0052960423  -0.99986263     0.98922961    -0.010633023    11585.238    
    375000   0.6522572      0.0067531921  -0.98624877     0.97456398    -0.011684793    11585.238    
    376000   0.66131453     0.008917844   -1.0019391      0.98809691    -0.013842194    11585.238    
    377000   0.69278059     0.012537951   -1.0524759      1.0351116     -0.01736423     11585.238    
    378000   0.66521317     0.0078742332  -1.0069098      0.99392202    -0.012987742    11585.238    
    379000   0.68051649     0.0096996089  -1.0314268      1.0167873     -0.014639456    11585.238    
    380000   0.68647723     0.0072457522  -1.038343       1.0256935     -0.01264949     11585.238    
    381000   0.67498838     0.0048252804  -1.0197636      1.0085276     -0.011236032    11585.238    
    382000   0.70186626     0.0088515862  -1.0637341      1.0486869     -0.015047252    11585.238    
    383000   0.69650935     0.0097327953  -1.0566317      1.0406829     -0.015948801    11585.238    
    384000   0.6698613      0.006732157   -1.0140079      1.000867      -0.013140929    11585.238    
    385000   0.6603095      0.0098633997  -1.0011836      0.98659525    -0.014588339    11585.238    
    386000   0.69005058     0.012757252   -1.0470155      1.0310326     -0.015982913    11585.238    
    387000   0.68288863     0.0087779887  -1.0361186      1.0203316     -0.015786962    11585.238    
    388000   0.68773765     0.010346269   -1.0452277      1.0275768     -0.017650975    11585.238    
    389000   0.70069562     0.01148034    -1.0616631      1.0469378     -0.014725266    11585.238    
    390000   0.68355439     0.0059237782  -1.0361256      1.0213264     -0.014799187    11585.238    
    391000   0.64768865     0.014873774   -0.9806114      0.96773792    -0.012873479    11585.238    
    392000   0.68983741     0.0078969847  -1.0416917      1.0307141     -0.010977607    11585.238    
    393000   0.68781149     0.013753348   -1.0440283      1.0276871     -0.016341211    11585.238    
    394000   0.669097       0.0090112491  -1.0096493      0.99972501    -0.0099242451   11585.238    
    395000   0.66227074     0.009019635   -1.0027192      0.98952561    -0.013193636    11585.238    
    396000   0.65637611     0.0088683816  -0.9896848      0.98071821    -0.0089665925   11585.238    
    397000   0.65948454     0.011450876   -0.99824008     0.98536264    -0.012877439    11585.238    
    398000   0.67723389     0.012390446   -1.024914       1.0118827     -0.01303133     11585.238    
    399000   0.70675168     0.010840206   -1.0705232      1.0559864     -0.014536768    11585.238    
    400000   0.69431674     0.013298217   -1.0477646      1.0374068     -0.010357776    11585.238    
    401000   0.63342836     0.012252914   -0.95307994     0.94643104    -0.0066489014   11585.238    
    402000   0.63481336     0.0062231669  -0.9551953      0.94850043    -0.0066948698   11585.238    
    403000   0.66523324     0.0090682507  -1.0062239      0.99395201    -0.012271933    11585.238    
    404000   0.66380083     0.0093558744  -1.0045854      0.99181179    -0.012773607    11585.238    
    405000   0.66162975     0.0077339482  -0.99954032     0.98856788    -0.01097244     11585.238    
    406000   0.63773565     0.011564908   -0.96564724     0.95286675    -0.012780492    11585.238    
    407000   0.66150565     0.011133736   -1.0006839      0.98838246    -0.012301442    11585.238    
    408000   0.63882218     0.0045013795  -0.96390384     0.95449016    -0.0094136772   11585.238    
    409000   0.63807076     0.0040340199  -0.9604818      0.95336745    -0.0071143522   11585.238    
    410000   0.67457315     0.010046906   -1.0199559      1.0079072     -0.012048758    11585.238    
    411000   0.70471462     0.0097449641  -1.0701006      1.0529427     -0.0171579      11585.238    
    412000   0.7086727      0.011606594   -1.0786843      1.0588567     -0.019827617    11585.238    
    413000   0.69372251     0.0037164231  -1.0506773      1.036519      -0.014158328    11585.238    
    414000   0.6853288      0.0060390757  -1.038891       1.0239776     -0.01491339     11585.238    
    415000   0.72845637     0.006169474   -1.1116593      1.0884163     -0.023243092    11585.238    
    416000   0.74836866     0.010839354   -1.1388282      1.118168      -0.020660202    11585.238    
    417000   0.71324593     0.011409997   -1.0840234      1.0656897     -0.018333705    11585.238    
    418000   0.72829197     0.0096009345  -1.1079348      1.0881706     -0.019764185    11585.238    
    419000   0.73056237     0.015867772   -1.1128835      1.0915629     -0.021320559    11585.238    
    420000   0.70444336     0.012380173   -1.0697543      1.0525374     -0.017216891    11585.238    
    421000   0.72671786     0.0041938106  -1.1046147      1.0858187     -0.018795978    11585.238    
    422000   0.67757266     0.012096449   -1.0267578      1.0123888     -0.014368983    11585.238    
    423000   0.73132169     0.0074129796  -1.1105807      1.0926975     -0.017883227    11585.238    
    424000   0.7052233      0.011653806   -1.0716042      1.0537028     -0.01790143     11585.238    
    425000   0.67932828     0.0097815672  -1.0297024      1.015012      -0.014690434    11585.238    
    426000   0.73037517     0.0084964168  -1.1142357      1.0912832     -0.022952519    11585.238    
    427000   0.69064721     0.011315942   -1.0486306      1.0319241     -0.016706517    11585.238    
    428000   0.68932965     0.0067118943  -1.0466133      1.0299554     -0.016657825    11585.238    
    429000   0.69039037     0.0068715869  -1.0454011      1.0315403     -0.013860826    11585.238    
    430000   0.67934918     0.010342835   -1.0325204      1.0150432     -0.01747717     11585.238    
    431000   0.662594       0.0084102499  -1.0011461      0.99000862    -0.011137515    11585.238    
    432000   0.70113666     0.005216448   -1.0638185      1.0475968     -0.016221754    11585.238    
    433000   0.72075559     0.0086572629  -1.0949123      1.0769102     -0.018002102    11585.238    
    434000   0.69706606     0.014931048   -1.059064       1.0415147     -0.017549311    11585.238    
    435000   0.70170873     0.007739303   -1.0644558      1.0484515     -0.016004308    11585.238    
    436000   0.69455821     0.011752677   -1.0538646      1.0377676     -0.016096969    11585.238    
    437000   0.71759082     0.01093104    -1.0912148      1.0721816     -0.019033223    11585.238    
    438000   0.67154115     0.0064654131  -1.0179784      1.0033769     -0.014601484    11585.238    
    439000   0.668057       0.013388227   -1.0113981      0.9981711     -0.013227022    11585.238    
    440000   0.65043339     0.0050160752  -0.98347803     0.97183895    -0.011639072    11585.238    
    441000   0.65347982     0.014763311   -0.99182808     0.97639075    -0.015437329    11585.238    
    442000   0.66934945     0.0068630762  -1.0152219      1.0001022     -0.01511971     11585.238    
    443000   0.64740455     0.0060400559  -0.97691894     0.96731344    -0.0096055006   11585.238    
    444000   0.64945561     0.015434972   -0.9861101      0.97037801    -0.01573209     11585.238    
    445000   0.67991805     0.012048043   -1.0321769      1.0158932     -0.016283674    11585.238    
    446000   0.63980705     0.0084397527  -0.96867226     0.9559617     -0.012710562    11585.238    
    447000   0.66013492     0.0049089714  -0.99714332     0.98633439    -0.010808928    11585.238    
    448000   0.66110475     0.0093014657  -1.0010617      0.98778347    -0.01327821     11585.238    
    449000   0.64756481     0.0060104567  -0.9788095      0.96755289    -0.011256616    11585.238    
    450000   0.66768074     0.007931916   -1.0115054      0.99760891    -0.013896501    11585.238    
    451000   0.67465375     0.0095980273  -1.0229395      1.0080276     -0.014911892    11585.238    
    452000   0.65285075     0.0036199912  -0.98767294     0.97545082    -0.012222117    11585.238    
    453000   0.67921896     0.009849229   -1.0340921      1.0148486     -0.019243506    11585.238    
    454000   0.67033008     0.0093037103  -1.019679       1.0015674     -0.018111632    11585.238    
    455000   0.69556824     0.0089301472  -1.057525       1.0392768     -0.018248248    11585.238    
    456000   0.68412264     0.010457687   -1.0390043      1.0221754     -0.01682887     11585.238    
    457000   0.69968317     0.015690024   -1.0650774      1.0454251     -0.019652385    11585.238    
    458000   0.69427601     0.012134529   -1.0540363      1.037346      -0.016690338    11585.238    
    459000   0.69230826     0.014779325   -1.0505629      1.0344059     -0.016157027    11585.238    
    460000   0.66072653     0.0013606088  -1.0018999      0.98721835    -0.014681501    11585.238    
    461000   0.67385231     0.0052039294  -1.0221674      1.0068301     -0.015337279    11585.238    
    462000   0.66763822     0.010685343   -1.01256        0.99754539    -0.015014589    11585.238    
    463000   0.67693958     0.012862807   -1.0248989      1.0114429     -0.013455937    11585.238    
    464000   0.69060164     0.0099451884  -1.049059       1.031856      -0.017202987    11585.238    
    465000   0.70315975     0.0099302945  -1.0678066      1.0506195     -0.017187081    11585.238    
    466000   0.66234909     0.0074993976  -1.0033137      0.98964269    -0.013670973    11585.238    
    467000   0.65015394     0.0089534673  -0.9839564      0.97142141    -0.012534991    11585.238    
    468000   0.69034354     0.012815928   -1.0487726      1.0314703     -0.017302269    11585.238    
    469000   0.63095759     0.0059339935  -0.94847425     0.94273937    -0.0057348765   11585.238    
    470000   0.63922326     0.013141423   -0.96564469     0.95508945    -0.010555245    11585.238    
    471000   0.6447798      0.012342901   -0.97851682     0.9633917     -0.015125123    11585.238    
    472000   0.62757682     0.011683971   -0.95195901     0.93768802    -0.014270994    11585.238    
    473000   0.69011258     0.006087436   -1.0482959      1.0311252     -0.01717069     11585.238    
    474000   0.6653529      0.0040231532  -1.0061797      0.9941308     -0.012048918    11585.238    
    475000   0.63893657     0.0055373478  -0.96420493     0.95466108    -0.0095438499   11585.238    
    476000   0.64201461     0.008833742   -0.9722827      0.95926011    -0.013022584    11585.238    
    477000   0.63228426     0.0075777684  -0.95526451     0.9447216     -0.010542902    11585.238    
    478000   0.64703665     0.010144904   -0.98158699     0.96676375    -0.014823243    11585.238    
    479000   0.65476323     0.010229532   -0.99248095     0.97830834    -0.014172618    11585.238    
    480000   0.65586233     0.010683343   -0.99205197     0.97995055    -0.012101419    11585.238    
    481000   0.64004445     0.0057729676  -0.96912655     0.95631641    -0.012810144    11585.238    
    482000   0.63746237     0.0055065175  -0.96437916     0.95245842    -0.011920744    11585.238    
    483000   0.63529649     0.005636967   -0.96373985     0.94922229    -0.014517556    11585.238    
    484000   0.60737875     0.0049374175  -0.9171959      0.90750927    -0.0096866277   11585.238    
    485000   0.65291306     0.0088593274  -0.9911431      0.97554392    -0.015599175    11585.238    
    486000   0.70616938     0.0066416789  -1.076459       1.0551164     -0.021342668    11585.238    
    487000   0.63872332     0.0047946268  -0.96958247     0.95434246    -0.015240003    11585.238    
    488000   0.65507147     0.010275119   -0.9873148      0.9787689     -0.0085458984   11585.238    
    489000   0.68682724     0.010586172   -1.0442785      1.0262165     -0.018062028    11585.238    
    490000   0.6788652      0.013181129   -1.0303804      1.0143201     -0.01606031     11585.238    
    491000   0.71803625     0.006795095   -1.0914453      1.0728471     -0.018598225    11585.238    
    492000   0.73331551     0.0099085523  -1.1165892      1.0956765     -0.020912692    11585.238    
    493000   0.73090732     0.013058205   -1.1144865      1.0920783     -0.022408179    11585.238    
    494000   0.69658267     0.011972689   -1.0580277      1.0407925     -0.017235235    11585.238    
    495000   0.721619       0.0072912252  -1.0939671      1.0782003     -0.015766817    11585.238    
    496000   0.70517534     0.011094504   -1.0697482      1.0536311     -0.016117047    11585.238    
    497000   0.72703143     0.0093029905  -1.1072676      1.0862872     -0.020980427    11585.238    
    498000   0.72350395     0.011761799   -1.1051615      1.0810166     -0.02414481     11585.238    
    499000   0.71498884     0.013426856   -1.0897935      1.0682939     -0.021499647    11585.238    
    500000   0.70873354     0.009203089   -1.0778441      1.0589476     -0.018896517    11585.238    
Loop time of 9.15982 on 1 procs for 500000 steps with 256 atoms

Performance: 23581248.852 tau/day, 54586.224 timesteps/s
99.7% CPU use with 1 MPI tasks x no OpenMP threads

MPI task timing breakdown:
Section |  min time  |  avg time  |  max time  |%varavg| %total
---------------------------------------------------------------
Pair    | 5.1881     | 5.1881     | 5.1881     |   0.0 | 56.64
Neigh   | 2.3002     | 2.3002     | 2.3002     |   0.0 | 25.11
Comm    | 0.54771    | 0.54771    | 0.54771    |   0.0 |  5.98
Output  | 0.0047804  | 0.0047804  | 0.0047804  |   0.0 |  0.05
Modify  | 0.94203    | 0.94203    | 0.94203    |   0.0 | 10.28
Other   |            | 0.177      |            |       |  1.93

Nlocal:            256 ave         256 max         256 min
Histogram: 1 0 0 0 0 0 0 0 0 0
Nghost:            196 ave         196 max         196 min
Histogram: 1 0 0 0 0 0 0 0 0 0
Neighs:           1368 ave        1368 max        1368 min
Histogram: 1 0 0 0 0 0 0 0 0 0

Total # of neighbors = 1368
Ave neighs/atom = 5.34375
Neighbor list builds = 25000
Dangerous builds not checked
Total wall time: 0:00:09
